LAMMPS data file via MATLAB, version R2019a, timestep = 321001

1 atoms
5 atom types

0.0000000000000000e+00 1.5000000000000000e+00 xlo xhi
0.0000000000000000e+00 4.4999999999999996e-01 ylo yhi
-5.0000000000000000e-01 5.0000000000000000e-01 zlo zhi

Atoms # sphere

1 5 1.0000000000000000e-02 1.0000000000000000e+00 4.7423199999999999e-01 9.0240500000000001e-02 0.0000000000000000e+00

Velocities

1 0.0000000000000000e+00 0.0000000000000000e+00 0.0000000000000000e+00 0.0000000000000000e+00 0.0000000000000000e+00 0.0000000000000000e+00
