LAMMPS data file via MATLAB, version R2019a, timestep = 321001

4634 atoms
5 atom types

0.0000000000000000e+00 1.5000000000000000e+00 xlo xhi
0.0000000000000000e+00 4.4999999999999996e-01 ylo yhi
5.0000000000000000e-01 5.0000000000000000e-01 zlo zhi

Atoms # sphere

1 3 2.0000000000000000e-03 1.6048742137599136e+04 1.0100000000000001e-01 1.1400000000000000e-01 0.0000000000000000e+00
2 3 2.0000000000000000e-03 1.6048742137599136e+04 1.0300000000000001e-01 1.1400000000000000e-01 0.0000000000000000e+00
3 3 2.0000000000000000e-03 1.6048742137599136e+04 1.0500000000000001e-01 1.1400000000000000e-01 0.0000000000000000e+00
4 3 2.0000000000000000e-03 1.6048742137599136e+04 1.0700000000000001e-01 1.1400000000000000e-01 0.0000000000000000e+00
5 3 2.0000000000000000e-03 1.6048742137599136e+04 1.0900000000000001e-01 1.1400000000000000e-01 0.0000000000000000e+00
6 3 2.0000000000000000e-03 1.6048742137599136e+04 1.1100000000000000e-01 1.1400000000000000e-01 0.0000000000000000e+00
7 3 2.0000000000000000e-03 1.6048742137599136e+04 1.1300000000000000e-01 1.1400000000000000e-01 0.0000000000000000e+00
8 3 2.0000000000000000e-03 1.6048742137599136e+04 1.1500000000000000e-01 1.1400000000000000e-01 0.0000000000000000e+00
9 3 2.0000000000000000e-03 1.6048742137599136e+04 1.1700000000000001e-01 1.1400000000000000e-01 0.0000000000000000e+00
10 3 2.0000000000000000e-03 1.6048742137599136e+04 1.1900000000000001e-01 1.1400000000000000e-01 0.0000000000000000e+00
11 3 2.0000000000000000e-03 1.6048742137599136e+04 1.2100000000000001e-01 1.1400000000000000e-01 0.0000000000000000e+00
12 3 2.0000000000000000e-03 1.6048742137599136e+04 1.2300000000000000e-01 1.1400000000000000e-01 0.0000000000000000e+00
13 3 2.0000000000000000e-03 1.6048742137599136e+04 1.2500000000000000e-01 1.1400000000000000e-01 0.0000000000000000e+00
14 3 2.0000000000000000e-03 1.6048742137599136e+04 1.2700000000000000e-01 1.1400000000000000e-01 0.0000000000000000e+00
15 3 2.0000000000000000e-03 1.6048742137599136e+04 1.2900000000000000e-01 1.1400000000000000e-01 0.0000000000000000e+00
16 3 2.0000000000000000e-03 1.6048742137599136e+04 1.3100000000000001e-01 1.1400000000000000e-01 0.0000000000000000e+00
17 3 2.0000000000000000e-03 1.6048742137599136e+04 1.3300000000000001e-01 1.1400000000000000e-01 0.0000000000000000e+00
18 3 2.0000000000000000e-03 1.6048742137599136e+04 1.3500000000000001e-01 1.1400000000000000e-01 0.0000000000000000e+00
19 3 2.0000000000000000e-03 1.6048742137599136e+04 1.3700000000000001e-01 1.1400000000000000e-01 0.0000000000000000e+00
20 3 2.0000000000000000e-03 1.6048742137599136e+04 1.3900000000000001e-01 1.1400000000000000e-01 0.0000000000000000e+00
21 3 2.0000000000000000e-03 1.6048742137599136e+04 1.4100000000000001e-01 1.1400000000000000e-01 0.0000000000000000e+00
22 3 2.0000000000000000e-03 1.6048742137599136e+04 1.4300000000000002e-01 1.1400000000000000e-01 0.0000000000000000e+00
23 3 2.0000000000000000e-03 1.6048742137599136e+04 1.4500000000000002e-01 1.1400000000000000e-01 0.0000000000000000e+00
24 3 2.0000000000000000e-03 1.6048742137599136e+04 1.4700000000000002e-01 1.1400000000000000e-01 0.0000000000000000e+00
25 3 2.0000000000000000e-03 1.6048742137599136e+04 1.4900000000000002e-01 1.1400000000000000e-01 0.0000000000000000e+00
26 3 2.0000000000000000e-03 1.6048742137599136e+04 1.5100000000000002e-01 1.1400000000000000e-01 0.0000000000000000e+00
27 3 2.0000000000000000e-03 1.6048742137599136e+04 1.5300000000000002e-01 1.1400000000000000e-01 0.0000000000000000e+00
28 3 2.0000000000000000e-03 1.6048742137599136e+04 1.5500000000000000e-01 1.1400000000000000e-01 0.0000000000000000e+00
29 3 2.0000000000000000e-03 1.6048742137599136e+04 1.5700000000000000e-01 1.1400000000000000e-01 0.0000000000000000e+00
30 3 2.0000000000000000e-03 1.6048742137599136e+04 1.5900000000000000e-01 1.1400000000000000e-01 0.0000000000000000e+00
31 3 2.0000000000000000e-03 1.6048742137599136e+04 1.6100000000000000e-01 1.1400000000000000e-01 0.0000000000000000e+00
32 3 2.0000000000000000e-03 1.6048742137599136e+04 1.6300000000000001e-01 1.1400000000000000e-01 0.0000000000000000e+00
33 3 2.0000000000000000e-03 1.6048742137599136e+04 1.6500000000000001e-01 1.1400000000000000e-01 0.0000000000000000e+00
34 3 2.0000000000000000e-03 1.6048742137599136e+04 1.6700000000000001e-01 1.1400000000000000e-01 0.0000000000000000e+00
35 3 2.0000000000000000e-03 1.6048742137599136e+04 1.6900000000000001e-01 1.1400000000000000e-01 0.0000000000000000e+00
36 3 2.0000000000000000e-03 1.6048742137599136e+04 1.7100000000000001e-01 1.1400000000000000e-01 0.0000000000000000e+00
37 3 2.0000000000000000e-03 1.6048742137599136e+04 1.7300000000000001e-01 1.1400000000000000e-01 0.0000000000000000e+00
38 3 2.0000000000000000e-03 1.6048742137599136e+04 1.7499999999999999e-01 1.1400000000000000e-01 0.0000000000000000e+00
39 3 2.0000000000000000e-03 1.6048742137599136e+04 1.7699999999999999e-01 1.1400000000000000e-01 0.0000000000000000e+00
40 3 2.0000000000000000e-03 1.6048742137599136e+04 1.7899999999999999e-01 1.1400000000000000e-01 0.0000000000000000e+00
41 3 2.0000000000000000e-03 1.6048742137599136e+04 1.8099999999999999e-01 1.1400000000000000e-01 0.0000000000000000e+00
42 3 2.0000000000000000e-03 1.6048742137599136e+04 1.8300000000000000e-01 1.1400000000000000e-01 0.0000000000000000e+00
43 3 2.0000000000000000e-03 1.6048742137599136e+04 1.8500000000000000e-01 1.1400000000000000e-01 0.0000000000000000e+00
44 3 2.0000000000000000e-03 1.6048742137599136e+04 1.8700000000000000e-01 1.1400000000000000e-01 0.0000000000000000e+00
45 3 2.0000000000000000e-03 1.6048742137599136e+04 1.8900000000000000e-01 1.1400000000000000e-01 0.0000000000000000e+00
46 3 2.0000000000000000e-03 1.6048742137599136e+04 1.9100000000000000e-01 1.1400000000000000e-01 0.0000000000000000e+00
47 3 2.0000000000000000e-03 1.6048742137599136e+04 1.9300000000000000e-01 1.1400000000000000e-01 0.0000000000000000e+00
48 3 2.0000000000000000e-03 1.6048742137599136e+04 1.9500000000000001e-01 1.1400000000000000e-01 0.0000000000000000e+00
49 3 2.0000000000000000e-03 1.6048742137599136e+04 1.9700000000000001e-01 1.1400000000000000e-01 0.0000000000000000e+00
50 3 2.0000000000000000e-03 1.6048742137599136e+04 1.9900000000000001e-01 1.1400000000000000e-01 0.0000000000000000e+00
51 3 2.0000000000000000e-03 1.6048742137599136e+04 2.0100000000000001e-01 1.1400000000000000e-01 0.0000000000000000e+00
52 3 2.0000000000000000e-03 1.6048742137599136e+04 2.0300000000000001e-01 1.1400000000000000e-01 0.0000000000000000e+00
53 3 2.0000000000000000e-03 1.6048742137599136e+04 2.0500000000000002e-01 1.1400000000000000e-01 0.0000000000000000e+00
54 3 2.0000000000000000e-03 1.6048742137599136e+04 2.0700000000000002e-01 1.1400000000000000e-01 0.0000000000000000e+00
55 3 2.0000000000000000e-03 1.6048742137599136e+04 2.0900000000000002e-01 1.1400000000000000e-01 0.0000000000000000e+00
56 3 2.0000000000000000e-03 1.6048742137599136e+04 2.1100000000000002e-01 1.1400000000000000e-01 0.0000000000000000e+00
57 3 2.0000000000000000e-03 1.6048742137599136e+04 2.1300000000000002e-01 1.1400000000000000e-01 0.0000000000000000e+00
58 3 2.0000000000000000e-03 1.6048742137599136e+04 2.1500000000000002e-01 1.1400000000000000e-01 0.0000000000000000e+00
59 3 2.0000000000000000e-03 1.6048742137599136e+04 2.1700000000000003e-01 1.1400000000000000e-01 0.0000000000000000e+00
60 3 2.0000000000000000e-03 1.6048742137599136e+04 2.1900000000000003e-01 1.1400000000000000e-01 0.0000000000000000e+00
61 3 2.0000000000000000e-03 1.6048742137599136e+04 2.2100000000000000e-01 1.1400000000000000e-01 0.0000000000000000e+00
62 3 2.0000000000000000e-03 1.6048742137599136e+04 2.2300000000000000e-01 1.1400000000000000e-01 0.0000000000000000e+00
63 3 2.0000000000000000e-03 1.6048742137599136e+04 2.2500000000000001e-01 1.1400000000000000e-01 0.0000000000000000e+00
64 3 2.0000000000000000e-03 1.6048742137599136e+04 2.2700000000000001e-01 1.1400000000000000e-01 0.0000000000000000e+00
65 3 2.0000000000000000e-03 1.6048742137599136e+04 2.2900000000000001e-01 1.1400000000000000e-01 0.0000000000000000e+00
66 3 2.0000000000000000e-03 1.6048742137599136e+04 2.3100000000000001e-01 1.1400000000000000e-01 0.0000000000000000e+00
67 3 2.0000000000000000e-03 1.6048742137599136e+04 2.3300000000000001e-01 1.1400000000000000e-01 0.0000000000000000e+00
68 3 2.0000000000000000e-03 1.6048742137599136e+04 2.3500000000000001e-01 1.1400000000000000e-01 0.0000000000000000e+00
69 3 2.0000000000000000e-03 1.6048742137599136e+04 2.3700000000000002e-01 1.1400000000000000e-01 0.0000000000000000e+00
70 3 2.0000000000000000e-03 1.6048742137599136e+04 2.3900000000000002e-01 1.1400000000000000e-01 0.0000000000000000e+00
71 3 2.0000000000000000e-03 1.6048742137599136e+04 2.4100000000000002e-01 1.1400000000000000e-01 0.0000000000000000e+00
72 3 2.0000000000000000e-03 1.6048742137599136e+04 2.4300000000000002e-01 1.1400000000000000e-01 0.0000000000000000e+00
73 3 2.0000000000000000e-03 1.6048742137599136e+04 2.4500000000000002e-01 1.1400000000000000e-01 0.0000000000000000e+00
74 3 2.0000000000000000e-03 1.6048742137599136e+04 2.4700000000000000e-01 1.1400000000000000e-01 0.0000000000000000e+00
75 3 2.0000000000000000e-03 1.6048742137599136e+04 2.4900000000000000e-01 1.1400000000000000e-01 0.0000000000000000e+00
76 3 2.0000000000000000e-03 1.6048742137599136e+04 2.5100000000000000e-01 1.1400000000000000e-01 0.0000000000000000e+00
77 3 2.0000000000000000e-03 1.6048742137599136e+04 2.5300000000000000e-01 1.1400000000000000e-01 0.0000000000000000e+00
78 3 2.0000000000000000e-03 1.6048742137599136e+04 2.5500000000000000e-01 1.1400000000000000e-01 0.0000000000000000e+00
79 3 2.0000000000000000e-03 1.6048742137599136e+04 2.5700000000000001e-01 1.1400000000000000e-01 0.0000000000000000e+00
80 3 2.0000000000000000e-03 1.6048742137599136e+04 2.5900000000000001e-01 1.1400000000000000e-01 0.0000000000000000e+00
81 3 2.0000000000000000e-03 1.6048742137599136e+04 2.6100000000000001e-01 1.1400000000000000e-01 0.0000000000000000e+00
82 3 2.0000000000000000e-03 1.6048742137599136e+04 2.6300000000000001e-01 1.1400000000000000e-01 0.0000000000000000e+00
83 3 2.0000000000000000e-03 1.6048742137599136e+04 2.6500000000000001e-01 1.1400000000000000e-01 0.0000000000000000e+00
84 3 2.0000000000000000e-03 1.6048742137599136e+04 2.6700000000000002e-01 1.1400000000000000e-01 0.0000000000000000e+00
85 3 2.0000000000000000e-03 1.6048742137599136e+04 2.6900000000000002e-01 1.1400000000000000e-01 0.0000000000000000e+00
86 3 2.0000000000000000e-03 1.6048742137599136e+04 2.7100000000000002e-01 1.1400000000000000e-01 0.0000000000000000e+00
87 3 2.0000000000000000e-03 1.6048742137599136e+04 2.7300000000000002e-01 1.1400000000000000e-01 0.0000000000000000e+00
88 3 2.0000000000000000e-03 1.6048742137599136e+04 2.7500000000000002e-01 1.1400000000000000e-01 0.0000000000000000e+00
89 3 2.0000000000000000e-03 1.6048742137599136e+04 2.7700000000000002e-01 1.1400000000000000e-01 0.0000000000000000e+00
90 3 2.0000000000000000e-03 1.6048742137599136e+04 2.7900000000000003e-01 1.1400000000000000e-01 0.0000000000000000e+00
91 3 2.0000000000000000e-03 1.6048742137599136e+04 2.8100000000000003e-01 1.1400000000000000e-01 0.0000000000000000e+00
92 3 2.0000000000000000e-03 1.6048742137599136e+04 2.8300000000000003e-01 1.1400000000000000e-01 0.0000000000000000e+00
93 3 2.0000000000000000e-03 1.6048742137599136e+04 2.8500000000000003e-01 1.1400000000000000e-01 0.0000000000000000e+00
94 3 2.0000000000000000e-03 1.6048742137599136e+04 2.8700000000000003e-01 1.1400000000000000e-01 0.0000000000000000e+00
95 3 2.0000000000000000e-03 1.6048742137599136e+04 2.8900000000000003e-01 1.1400000000000000e-01 0.0000000000000000e+00
96 3 2.0000000000000000e-03 1.6048742137599136e+04 2.9100000000000004e-01 1.1400000000000000e-01 0.0000000000000000e+00
97 3 2.0000000000000000e-03 1.6048742137599136e+04 2.9300000000000004e-01 1.1400000000000000e-01 0.0000000000000000e+00
98 3 2.0000000000000000e-03 1.6048742137599136e+04 2.9500000000000004e-01 1.1400000000000000e-01 0.0000000000000000e+00
99 3 2.0000000000000000e-03 1.6048742137599136e+04 2.9700000000000004e-01 1.1400000000000000e-01 0.0000000000000000e+00
100 3 2.0000000000000000e-03 1.6048742137599136e+04 2.9900000000000004e-01 1.1400000000000000e-01 0.0000000000000000e+00
101 3 2.0000000000000000e-03 1.6048742137599136e+04 3.0100000000000005e-01 1.1400000000000000e-01 0.0000000000000000e+00
102 3 2.0000000000000000e-03 1.6048742137599136e+04 3.0300000000000005e-01 1.1400000000000000e-01 0.0000000000000000e+00
103 3 2.0000000000000000e-03 1.6048742137599136e+04 3.0500000000000005e-01 1.1400000000000000e-01 0.0000000000000000e+00
104 3 2.0000000000000000e-03 1.6048742137599136e+04 3.0700000000000005e-01 1.1400000000000000e-01 0.0000000000000000e+00
105 3 2.0000000000000000e-03 1.6048742137599136e+04 3.0900000000000005e-01 1.1400000000000000e-01 0.0000000000000000e+00
106 3 2.0000000000000000e-03 1.6048742137599136e+04 3.1100000000000000e-01 1.1400000000000000e-01 0.0000000000000000e+00
107 3 2.0000000000000000e-03 1.6048742137599136e+04 3.1300000000000000e-01 1.1400000000000000e-01 0.0000000000000000e+00
108 3 2.0000000000000000e-03 1.6048742137599136e+04 1.0100000000000001e-01 1.1600000000000001e-01 0.0000000000000000e+00
109 3 2.0000000000000000e-03 1.6048742137599136e+04 1.0300000000000001e-01 1.1600000000000001e-01 0.0000000000000000e+00
110 3 2.0000000000000000e-03 1.6048742137599136e+04 1.0500000000000001e-01 1.1600000000000001e-01 0.0000000000000000e+00
111 3 2.0000000000000000e-03 1.6048742137599136e+04 1.0700000000000001e-01 1.1600000000000001e-01 0.0000000000000000e+00
112 3 2.0000000000000000e-03 1.6048742137599136e+04 1.0900000000000001e-01 1.1600000000000001e-01 0.0000000000000000e+00
113 3 2.0000000000000000e-03 1.6048742137599136e+04 1.1100000000000000e-01 1.1600000000000001e-01 0.0000000000000000e+00
114 3 2.0000000000000000e-03 1.6048742137599136e+04 1.1300000000000000e-01 1.1600000000000001e-01 0.0000000000000000e+00
115 3 2.0000000000000000e-03 1.6048742137599136e+04 1.1500000000000000e-01 1.1600000000000001e-01 0.0000000000000000e+00
116 3 2.0000000000000000e-03 1.6048742137599136e+04 1.1700000000000001e-01 1.1600000000000001e-01 0.0000000000000000e+00
117 3 2.0000000000000000e-03 1.6048742137599136e+04 1.1900000000000001e-01 1.1600000000000001e-01 0.0000000000000000e+00
118 3 2.0000000000000000e-03 1.6048742137599136e+04 1.2100000000000001e-01 1.1600000000000001e-01 0.0000000000000000e+00
119 3 2.0000000000000000e-03 1.6048742137599136e+04 1.2300000000000000e-01 1.1600000000000001e-01 0.0000000000000000e+00
120 3 2.0000000000000000e-03 1.6048742137599136e+04 1.2500000000000000e-01 1.1600000000000001e-01 0.0000000000000000e+00
121 3 2.0000000000000000e-03 1.6048742137599136e+04 1.2700000000000000e-01 1.1600000000000001e-01 0.0000000000000000e+00
122 3 2.0000000000000000e-03 1.6048742137599136e+04 1.2900000000000000e-01 1.1600000000000001e-01 0.0000000000000000e+00
123 3 2.0000000000000000e-03 1.6048742137599136e+04 1.3100000000000001e-01 1.1600000000000001e-01 0.0000000000000000e+00
124 3 2.0000000000000000e-03 1.6048742137599136e+04 1.3300000000000001e-01 1.1600000000000001e-01 0.0000000000000000e+00
125 3 2.0000000000000000e-03 1.6048742137599136e+04 1.3500000000000001e-01 1.1600000000000001e-01 0.0000000000000000e+00
126 3 2.0000000000000000e-03 1.6048742137599136e+04 1.3700000000000001e-01 1.1600000000000001e-01 0.0000000000000000e+00
127 3 2.0000000000000000e-03 1.6048742137599136e+04 1.3900000000000001e-01 1.1600000000000001e-01 0.0000000000000000e+00
128 3 2.0000000000000000e-03 1.6048742137599136e+04 1.4100000000000001e-01 1.1600000000000001e-01 0.0000000000000000e+00
129 3 2.0000000000000000e-03 1.6048742137599136e+04 1.4300000000000002e-01 1.1600000000000001e-01 0.0000000000000000e+00
130 3 2.0000000000000000e-03 1.6048742137599136e+04 1.4500000000000002e-01 1.1600000000000001e-01 0.0000000000000000e+00
131 3 2.0000000000000000e-03 1.6048742137599136e+04 1.4700000000000002e-01 1.1600000000000001e-01 0.0000000000000000e+00
132 3 2.0000000000000000e-03 1.6048742137599136e+04 1.4900000000000002e-01 1.1600000000000001e-01 0.0000000000000000e+00
133 3 2.0000000000000000e-03 1.6048742137599136e+04 1.5100000000000002e-01 1.1600000000000001e-01 0.0000000000000000e+00
134 3 2.0000000000000000e-03 1.6048742137599136e+04 1.5300000000000002e-01 1.1600000000000001e-01 0.0000000000000000e+00
135 3 2.0000000000000000e-03 1.6048742137599136e+04 1.5500000000000000e-01 1.1600000000000001e-01 0.0000000000000000e+00
136 3 2.0000000000000000e-03 1.6048742137599136e+04 1.5700000000000000e-01 1.1600000000000001e-01 0.0000000000000000e+00
137 3 2.0000000000000000e-03 1.6048742137599136e+04 1.5900000000000000e-01 1.1600000000000001e-01 0.0000000000000000e+00
138 3 2.0000000000000000e-03 1.6048742137599136e+04 1.6100000000000000e-01 1.1600000000000001e-01 0.0000000000000000e+00
139 3 2.0000000000000000e-03 1.6048742137599136e+04 1.6300000000000001e-01 1.1600000000000001e-01 0.0000000000000000e+00
140 3 2.0000000000000000e-03 1.6048742137599136e+04 1.6500000000000001e-01 1.1600000000000001e-01 0.0000000000000000e+00
141 3 2.0000000000000000e-03 1.6048742137599136e+04 1.6700000000000001e-01 1.1600000000000001e-01 0.0000000000000000e+00
142 3 2.0000000000000000e-03 1.6048742137599136e+04 1.6900000000000001e-01 1.1600000000000001e-01 0.0000000000000000e+00
143 3 2.0000000000000000e-03 1.6048742137599136e+04 1.7100000000000001e-01 1.1600000000000001e-01 0.0000000000000000e+00
144 3 2.0000000000000000e-03 1.6048742137599136e+04 1.7300000000000001e-01 1.1600000000000001e-01 0.0000000000000000e+00
145 3 2.0000000000000000e-03 1.6048742137599136e+04 1.7499999999999999e-01 1.1600000000000001e-01 0.0000000000000000e+00
146 3 2.0000000000000000e-03 1.6048742137599136e+04 1.7699999999999999e-01 1.1600000000000001e-01 0.0000000000000000e+00
147 3 2.0000000000000000e-03 1.6048742137599136e+04 1.7899999999999999e-01 1.1600000000000001e-01 0.0000000000000000e+00
148 3 2.0000000000000000e-03 1.6048742137599136e+04 1.8099999999999999e-01 1.1600000000000001e-01 0.0000000000000000e+00
149 3 2.0000000000000000e-03 1.6048742137599136e+04 1.8300000000000000e-01 1.1600000000000001e-01 0.0000000000000000e+00
150 3 2.0000000000000000e-03 1.6048742137599136e+04 1.8500000000000000e-01 1.1600000000000001e-01 0.0000000000000000e+00
151 3 2.0000000000000000e-03 1.6048742137599136e+04 1.8700000000000000e-01 1.1600000000000001e-01 0.0000000000000000e+00
152 3 2.0000000000000000e-03 1.6048742137599136e+04 1.8900000000000000e-01 1.1600000000000001e-01 0.0000000000000000e+00
153 3 2.0000000000000000e-03 1.6048742137599136e+04 1.9100000000000000e-01 1.1600000000000001e-01 0.0000000000000000e+00
154 3 2.0000000000000000e-03 1.6048742137599136e+04 1.9300000000000000e-01 1.1600000000000001e-01 0.0000000000000000e+00
155 3 2.0000000000000000e-03 1.6048742137599136e+04 1.9500000000000001e-01 1.1600000000000001e-01 0.0000000000000000e+00
156 3 2.0000000000000000e-03 1.6048742137599136e+04 1.9700000000000001e-01 1.1600000000000001e-01 0.0000000000000000e+00
157 3 2.0000000000000000e-03 1.6048742137599136e+04 1.9900000000000001e-01 1.1600000000000001e-01 0.0000000000000000e+00
158 3 2.0000000000000000e-03 1.6048742137599136e+04 2.0100000000000001e-01 1.1600000000000001e-01 0.0000000000000000e+00
159 3 2.0000000000000000e-03 1.6048742137599136e+04 2.0300000000000001e-01 1.1600000000000001e-01 0.0000000000000000e+00
160 3 2.0000000000000000e-03 1.6048742137599136e+04 2.0500000000000002e-01 1.1600000000000001e-01 0.0000000000000000e+00
161 3 2.0000000000000000e-03 1.6048742137599136e+04 2.0700000000000002e-01 1.1600000000000001e-01 0.0000000000000000e+00
162 3 2.0000000000000000e-03 1.6048742137599136e+04 2.0900000000000002e-01 1.1600000000000001e-01 0.0000000000000000e+00
163 3 2.0000000000000000e-03 1.6048742137599136e+04 2.1100000000000002e-01 1.1600000000000001e-01 0.0000000000000000e+00
164 3 2.0000000000000000e-03 1.6048742137599136e+04 2.1300000000000002e-01 1.1600000000000001e-01 0.0000000000000000e+00
165 3 2.0000000000000000e-03 1.6048742137599136e+04 2.1500000000000002e-01 1.1600000000000001e-01 0.0000000000000000e+00
166 3 2.0000000000000000e-03 1.6048742137599136e+04 2.1700000000000003e-01 1.1600000000000001e-01 0.0000000000000000e+00
167 3 2.0000000000000000e-03 1.6048742137599136e+04 2.1900000000000003e-01 1.1600000000000001e-01 0.0000000000000000e+00
168 3 2.0000000000000000e-03 1.6048742137599136e+04 2.2100000000000000e-01 1.1600000000000001e-01 0.0000000000000000e+00
169 3 2.0000000000000000e-03 1.6048742137599136e+04 2.2300000000000000e-01 1.1600000000000001e-01 0.0000000000000000e+00
170 3 2.0000000000000000e-03 1.6048742137599136e+04 2.2500000000000001e-01 1.1600000000000001e-01 0.0000000000000000e+00
171 3 2.0000000000000000e-03 1.6048742137599136e+04 2.2700000000000001e-01 1.1600000000000001e-01 0.0000000000000000e+00
172 3 2.0000000000000000e-03 1.6048742137599136e+04 2.2900000000000001e-01 1.1600000000000001e-01 0.0000000000000000e+00
173 3 2.0000000000000000e-03 1.6048742137599136e+04 2.3100000000000001e-01 1.1600000000000001e-01 0.0000000000000000e+00
174 3 2.0000000000000000e-03 1.6048742137599136e+04 2.3300000000000001e-01 1.1600000000000001e-01 0.0000000000000000e+00
175 3 2.0000000000000000e-03 1.6048742137599136e+04 2.3500000000000001e-01 1.1600000000000001e-01 0.0000000000000000e+00
176 3 2.0000000000000000e-03 1.6048742137599136e+04 2.3700000000000002e-01 1.1600000000000001e-01 0.0000000000000000e+00
177 3 2.0000000000000000e-03 1.6048742137599136e+04 2.3900000000000002e-01 1.1600000000000001e-01 0.0000000000000000e+00
178 3 2.0000000000000000e-03 1.6048742137599136e+04 2.4100000000000002e-01 1.1600000000000001e-01 0.0000000000000000e+00
179 3 2.0000000000000000e-03 1.6048742137599136e+04 2.4300000000000002e-01 1.1600000000000001e-01 0.0000000000000000e+00
180 3 2.0000000000000000e-03 1.6048742137599136e+04 2.4500000000000002e-01 1.1600000000000001e-01 0.0000000000000000e+00
181 3 2.0000000000000000e-03 1.6048742137599136e+04 2.4700000000000000e-01 1.1600000000000001e-01 0.0000000000000000e+00
182 3 2.0000000000000000e-03 1.6048742137599136e+04 2.4900000000000000e-01 1.1600000000000001e-01 0.0000000000000000e+00
183 3 2.0000000000000000e-03 1.6048742137599136e+04 2.5100000000000000e-01 1.1600000000000001e-01 0.0000000000000000e+00
184 3 2.0000000000000000e-03 1.6048742137599136e+04 2.5300000000000000e-01 1.1600000000000001e-01 0.0000000000000000e+00
185 3 2.0000000000000000e-03 1.6048742137599136e+04 2.5500000000000000e-01 1.1600000000000001e-01 0.0000000000000000e+00
186 3 2.0000000000000000e-03 1.6048742137599136e+04 2.5700000000000001e-01 1.1600000000000001e-01 0.0000000000000000e+00
187 3 2.0000000000000000e-03 1.6048742137599136e+04 2.5900000000000001e-01 1.1600000000000001e-01 0.0000000000000000e+00
188 3 2.0000000000000000e-03 1.6048742137599136e+04 2.6100000000000001e-01 1.1600000000000001e-01 0.0000000000000000e+00
189 3 2.0000000000000000e-03 1.6048742137599136e+04 2.6300000000000001e-01 1.1600000000000001e-01 0.0000000000000000e+00
190 3 2.0000000000000000e-03 1.6048742137599136e+04 2.6500000000000001e-01 1.1600000000000001e-01 0.0000000000000000e+00
191 3 2.0000000000000000e-03 1.6048742137599136e+04 2.6700000000000002e-01 1.1600000000000001e-01 0.0000000000000000e+00
192 3 2.0000000000000000e-03 1.6048742137599136e+04 2.6900000000000002e-01 1.1600000000000001e-01 0.0000000000000000e+00
193 3 2.0000000000000000e-03 1.6048742137599136e+04 2.7100000000000002e-01 1.1600000000000001e-01 0.0000000000000000e+00
194 3 2.0000000000000000e-03 1.6048742137599136e+04 2.7300000000000002e-01 1.1600000000000001e-01 0.0000000000000000e+00
195 3 2.0000000000000000e-03 1.6048742137599136e+04 2.7500000000000002e-01 1.1600000000000001e-01 0.0000000000000000e+00
196 3 2.0000000000000000e-03 1.6048742137599136e+04 2.7700000000000002e-01 1.1600000000000001e-01 0.0000000000000000e+00
197 3 2.0000000000000000e-03 1.6048742137599136e+04 2.7900000000000003e-01 1.1600000000000001e-01 0.0000000000000000e+00
198 3 2.0000000000000000e-03 1.6048742137599136e+04 2.8100000000000003e-01 1.1600000000000001e-01 0.0000000000000000e+00
199 3 2.0000000000000000e-03 1.6048742137599136e+04 2.8300000000000003e-01 1.1600000000000001e-01 0.0000000000000000e+00
200 3 2.0000000000000000e-03 1.6048742137599136e+04 2.8500000000000003e-01 1.1600000000000001e-01 0.0000000000000000e+00
201 3 2.0000000000000000e-03 1.6048742137599136e+04 2.8700000000000003e-01 1.1600000000000001e-01 0.0000000000000000e+00
202 3 2.0000000000000000e-03 1.6048742137599136e+04 2.8900000000000003e-01 1.1600000000000001e-01 0.0000000000000000e+00
203 3 2.0000000000000000e-03 1.6048742137599136e+04 2.9100000000000004e-01 1.1600000000000001e-01 0.0000000000000000e+00
204 3 2.0000000000000000e-03 1.6048742137599136e+04 2.9300000000000004e-01 1.1600000000000001e-01 0.0000000000000000e+00
205 3 2.0000000000000000e-03 1.6048742137599136e+04 2.9500000000000004e-01 1.1600000000000001e-01 0.0000000000000000e+00
206 3 2.0000000000000000e-03 1.6048742137599136e+04 2.9700000000000004e-01 1.1600000000000001e-01 0.0000000000000000e+00
207 3 2.0000000000000000e-03 1.6048742137599136e+04 2.9900000000000004e-01 1.1600000000000001e-01 0.0000000000000000e+00
208 3 2.0000000000000000e-03 1.6048742137599136e+04 3.0100000000000005e-01 1.1600000000000001e-01 0.0000000000000000e+00
209 3 2.0000000000000000e-03 1.6048742137599136e+04 3.0300000000000005e-01 1.1600000000000001e-01 0.0000000000000000e+00
210 3 2.0000000000000000e-03 1.6048742137599136e+04 3.0500000000000005e-01 1.1600000000000001e-01 0.0000000000000000e+00
211 3 2.0000000000000000e-03 1.6048742137599136e+04 3.0700000000000005e-01 1.1600000000000001e-01 0.0000000000000000e+00
212 3 2.0000000000000000e-03 1.6048742137599136e+04 3.0900000000000005e-01 1.1600000000000001e-01 0.0000000000000000e+00
213 3 2.0000000000000000e-03 1.6048742137599136e+04 3.1100000000000000e-01 1.1600000000000001e-01 0.0000000000000000e+00
214 3 2.0000000000000000e-03 1.6048742137599136e+04 3.1300000000000000e-01 1.1600000000000001e-01 0.0000000000000000e+00
215 3 2.0000000000000000e-03 1.6048742137599136e+04 3.1500000000000000e-01 1.1600000000000001e-01 0.0000000000000000e+00
216 3 2.0000000000000000e-03 1.6048742137599136e+04 3.1700000000000000e-01 1.1600000000000001e-01 0.0000000000000000e+00
217 3 2.0000000000000000e-03 1.6048742137599136e+04 1.0100000000000001e-01 1.1800000000000001e-01 0.0000000000000000e+00
218 3 2.0000000000000000e-03 1.6048742137599136e+04 1.0300000000000001e-01 1.1800000000000001e-01 0.0000000000000000e+00
219 3 2.0000000000000000e-03 1.6048742137599136e+04 1.0500000000000001e-01 1.1800000000000001e-01 0.0000000000000000e+00
220 3 2.0000000000000000e-03 1.6048742137599136e+04 1.0700000000000001e-01 1.1800000000000001e-01 0.0000000000000000e+00
221 3 2.0000000000000000e-03 1.6048742137599136e+04 1.0900000000000001e-01 1.1800000000000001e-01 0.0000000000000000e+00
222 3 2.0000000000000000e-03 1.6048742137599136e+04 1.1100000000000000e-01 1.1800000000000001e-01 0.0000000000000000e+00
223 3 2.0000000000000000e-03 1.6048742137599136e+04 1.1300000000000000e-01 1.1800000000000001e-01 0.0000000000000000e+00
224 3 2.0000000000000000e-03 1.6048742137599136e+04 1.1500000000000000e-01 1.1800000000000001e-01 0.0000000000000000e+00
225 3 2.0000000000000000e-03 1.6048742137599136e+04 1.1700000000000001e-01 1.1800000000000001e-01 0.0000000000000000e+00
226 3 2.0000000000000000e-03 1.6048742137599136e+04 1.1900000000000001e-01 1.1800000000000001e-01 0.0000000000000000e+00
227 3 2.0000000000000000e-03 1.6048742137599136e+04 1.2100000000000001e-01 1.1800000000000001e-01 0.0000000000000000e+00
228 3 2.0000000000000000e-03 1.6048742137599136e+04 1.2300000000000000e-01 1.1800000000000001e-01 0.0000000000000000e+00
229 3 2.0000000000000000e-03 1.6048742137599136e+04 1.2500000000000000e-01 1.1800000000000001e-01 0.0000000000000000e+00
230 3 2.0000000000000000e-03 1.6048742137599136e+04 1.2700000000000000e-01 1.1800000000000001e-01 0.0000000000000000e+00
231 3 2.0000000000000000e-03 1.6048742137599136e+04 1.2900000000000000e-01 1.1800000000000001e-01 0.0000000000000000e+00
232 3 2.0000000000000000e-03 1.6048742137599136e+04 1.3100000000000001e-01 1.1800000000000001e-01 0.0000000000000000e+00
233 3 2.0000000000000000e-03 1.6048742137599136e+04 1.3300000000000001e-01 1.1800000000000001e-01 0.0000000000000000e+00
234 3 2.0000000000000000e-03 1.6048742137599136e+04 1.3500000000000001e-01 1.1800000000000001e-01 0.0000000000000000e+00
235 3 2.0000000000000000e-03 1.6048742137599136e+04 1.3700000000000001e-01 1.1800000000000001e-01 0.0000000000000000e+00
236 3 2.0000000000000000e-03 1.6048742137599136e+04 1.3900000000000001e-01 1.1800000000000001e-01 0.0000000000000000e+00
237 3 2.0000000000000000e-03 1.6048742137599136e+04 1.4100000000000001e-01 1.1800000000000001e-01 0.0000000000000000e+00
238 3 2.0000000000000000e-03 1.6048742137599136e+04 1.4300000000000002e-01 1.1800000000000001e-01 0.0000000000000000e+00
239 3 2.0000000000000000e-03 1.6048742137599136e+04 1.4500000000000002e-01 1.1800000000000001e-01 0.0000000000000000e+00
240 3 2.0000000000000000e-03 1.6048742137599136e+04 1.4700000000000002e-01 1.1800000000000001e-01 0.0000000000000000e+00
241 3 2.0000000000000000e-03 1.6048742137599136e+04 1.4900000000000002e-01 1.1800000000000001e-01 0.0000000000000000e+00
242 3 2.0000000000000000e-03 1.6048742137599136e+04 1.5100000000000002e-01 1.1800000000000001e-01 0.0000000000000000e+00
243 3 2.0000000000000000e-03 1.6048742137599136e+04 1.5300000000000002e-01 1.1800000000000001e-01 0.0000000000000000e+00
244 3 2.0000000000000000e-03 1.6048742137599136e+04 1.5500000000000000e-01 1.1800000000000001e-01 0.0000000000000000e+00
245 3 2.0000000000000000e-03 1.6048742137599136e+04 1.5700000000000000e-01 1.1800000000000001e-01 0.0000000000000000e+00
246 3 2.0000000000000000e-03 1.6048742137599136e+04 1.5900000000000000e-01 1.1800000000000001e-01 0.0000000000000000e+00