LAMMPS (3 Mar 2020)
  orthogonal box = (0 0 -0.5) to (1.5 0.45 0.5)
  4 by 2 by 1 MPI processor grid
  reading atoms ...
  12405 atoms
  reading velocities ...
  12405 velocities
  read_data CPU = 0.0480468 secs
5670 atoms in group substrate_atoms1
2100 atoms in group substrate_atoms2
4634 atoms in group slider_atoms
1 atoms in group spring_atoms
1 atoms in group springslider_atoms
12404 atoms in group forGrav
1 rigid bodies with 4634 atoms
WARNING: One or more atoms are time integrated more than once (../modify.cpp:289)
Neighbor list info ...
  update every 1 steps, delay 0 steps, check yes
  max neighbors/atom: 2000, page size: 100000
  master list distance cutoff = 0.010675
  ghost atom cutoff = 0.010675
  binsize = 0.0053375, bins = 282 85 188
  1 neighbor lists, perpetual/occasional/extra = 1 0 0
  (1) pair granular, perpetual
      attributes: half, newton on, size
      pair build: half/size/bin/newton
      stencil: half/bin/2d/newton
      bin: standard
Per MPI rank memory allocation (min/avg/max) = 7.842 | 8.514 | 9.713 Mbytes
Step CPU Atoms KinEng PotEng Volume Density 
       0            0    12405 1.5844896e-09            0        0.675    12.245505 
     100   0.27427951    12405 1.5726528e-09            0        0.675    12.245505 
     200   0.55594857    12405 1.5617652e-09            0        0.675    12.245505 
     300   0.83872933    12405 1.5856518e-09            0        0.675    12.245505 
     400    1.1232629    12405 1.6647998e-09            0        0.675    12.245505 
     500      1.40466    12405 1.8255211e-09            0        0.675    12.245505 
     600    1.6877317    12405 2.0976023e-09            0        0.675    12.245505 
     700    1.9695251    12405 2.5150246e-09            0        0.675    12.245505 
     800    2.2516083    12405 3.1185705e-09            0        0.675    12.245505 
     900    2.5520346    12405 3.9481371e-09            0        0.675    12.245505 
    1000    2.8551183    12405 5.0383297e-09            0        0.675    12.245505 
    1100    3.1424356    12405 6.4372411e-09            0        0.675    12.245505 
    1200    3.4288698    12405 8.1958772e-09            0        0.675    12.245505 
    1300    3.7106773    12405 1.0375004e-08            0        0.675    12.245505 
    1400    3.9918104    12405 1.3043941e-08            0        0.675    12.245505 
    1500    4.2734038    12405 1.6265939e-08            0        0.675    12.245505 
    1600    4.5559036    12405 2.0113543e-08            0        0.675    12.245505 
    1700    4.8383203    12405 2.465244e-08            0        0.675    12.245505 
    1800    5.1130736    12405 2.9945102e-08            0        0.675    12.245505 
    1900     5.396103    12405 3.6125081e-08            0        0.675    12.245505 
    2000    5.6949415    12405 4.3289484e-08            0        0.675    12.245505 
    2100    5.9783423    12405 5.137904e-08            0        0.675    12.245505 
    2200    6.2590493    12405 6.0129188e-08            0        0.675    12.245505 
    2300     6.539328    12405 7.0046728e-08            0        0.675    12.245505 
    2400    6.8211894    12405 8.0966884e-08            0        0.675    12.245505 
    2500    7.1044017    12405 9.2996753e-08            0        0.675    12.245505 
    2600    7.3883023    12405 1.0661382e-07            0        0.675    12.245505 
    2700    7.6699345    12405 1.2181029e-07            0        0.675    12.245505 
    2800     7.951403    12405 1.3863447e-07            0        0.675    12.245505 
    2900     8.233802    12405 1.5710048e-07            0        0.675    12.245505 
    3000    8.5329181    12405 1.7752711e-07            0        0.675    12.245505 
    3100    8.8148949    12405 1.9976773e-07            0        0.675    12.245505 
    3200    9.0951549    12405 2.2443675e-07            0        0.675    12.245505 
    3300     9.375524    12405 2.5207918e-07            0        0.675    12.245505 
    3400    9.6565362    12405 2.8271603e-07            0        0.675    12.245505 
    3500    9.9291497    12405 3.1635985e-07            0        0.675    12.245505 
    3600    10.209721    12405 3.5323787e-07            0        0.675    12.245505 
    3700    10.490247    12405 3.9197818e-07            0        0.675    12.245505 
    3800    10.771186    12405 4.3296224e-07            0        0.675    12.245505 
    3900    11.052264    12405 4.7794546e-07            0        0.675    12.245505 
    4000    11.350148    12405 5.2586818e-07            0        0.675    12.245505 
    4100    11.631782    12405 5.7833153e-07            0        0.675    12.245505 
    4200    11.912085    12405 6.3644645e-07            0        0.675    12.245505 
    4300    12.192447    12405 6.9912105e-07            0        0.675    12.245505 
    4400    12.471626    12405 7.670336e-07            0        0.675    12.245505 
    4500    12.752613    12405 8.3986154e-07            0        0.675    12.245505 
    4600    13.032652    12405 9.188012e-07            0        0.675    12.245505 
    4700    13.312821    12405 1.0014777e-06            0        0.675    12.245505 
    4800    13.594399    12405 1.0948467e-06            0        0.675    12.245505 
    4900    13.874932    12405 1.1960272e-06            0        0.675    12.245505 
    5000    14.170508    12405 1.2978842e-06            0        0.675    12.245505 
    5100    14.451053    12405 1.4102275e-06            0        0.675    12.245505 
    5200    14.722208    12405 1.5286848e-06            0        0.675    12.245505 
    5300    15.001751    12405 1.6496157e-06            0        0.675    12.245505 
    5400      15.2809    12405 1.7729045e-06            0        0.675    12.245505 
    5500    15.559288    12405 1.899024e-06            0        0.675    12.245505 
    5600    15.837948    12405 2.0314261e-06            0        0.675    12.245505 
    5700    16.118112    12405 2.174734e-06            0        0.675    12.245505 
    5800    16.398555    12405 2.3138031e-06            0        0.675    12.245505 
    5900    16.677515    12405 2.4725843e-06            0        0.675    12.245505 
    6000       16.973    12405 2.6538419e-06            0        0.675    12.245505 
    6100    17.250948    12405 2.8388403e-06            0        0.675    12.245505 
    6200    17.529562    12405 3.0320707e-06            0        0.675    12.245505 
    6300    17.807573    12405 3.2363288e-06            0        0.675    12.245505 
    6400    18.086423    12405 3.4667771e-06            0        0.675    12.245505 
    6500    18.364343    12405 3.6688563e-06            0        0.675    12.245505 
    6600    18.642813    12405 3.8558899e-06            0        0.675    12.245505 
    6700    18.921818    12405 4.0439913e-06            0        0.675    12.245505 
    6800    19.200169    12405 4.2560065e-06            0        0.675    12.245505 
    6900    19.486403    12405 4.4505421e-06            0        0.675    12.245505 
    7000    19.790305    12405 4.6593066e-06            0        0.675    12.245505 
    7100    20.069558    12405 4.8623575e-06            0        0.675    12.245505 
    7200    20.355335    12405 5.0718589e-06            0        0.675    12.245505 
    7300    20.632097    12405 5.2975265e-06            0        0.675    12.245505 
    7400    20.917659    12405 5.5220539e-06            0        0.675    12.245505 
    7500    21.194662    12405 5.740325e-06            0        0.675    12.245505 
    7600    21.488403    12405 5.9808662e-06            0        0.675    12.245505 
    7700    21.774159    12405 6.2502259e-06            0        0.675    12.245505 
    7800    22.058852    12405 6.5060177e-06            0        0.675    12.245505 
    7900    22.344122    12405 6.7052317e-06            0        0.675    12.245505 
    8000    22.652888    12405 6.9333729e-06            0        0.675    12.245505 
    8100    22.936472    12405 7.1675235e-06            0        0.675    12.245505 
    8200    23.228349    12405 7.3852597e-06            0        0.675    12.245505 
    8300    23.518586    12405 7.6334322e-06            0        0.675    12.245505 
    8400    23.810864    12405 7.9090408e-06            0        0.675    12.245505 
    8500    24.102634    12405 8.1769666e-06            0        0.675    12.245505 
    8600    24.387978    12405 8.473264e-06            0        0.675    12.245505 
    8700    24.679266    12405 8.7724021e-06            0        0.675    12.245505 
    8800    24.969597    12405 9.0667299e-06            0        0.675    12.245505 
    8900    25.260701    12405 9.3794706e-06            0        0.675    12.245505 
    9000    25.568326    12405 9.6252679e-06            0        0.675    12.245505 
    9100    25.851927    12405 9.8383113e-06            0        0.675    12.245505 
    9200    26.144354    12405 1.0101493e-05            0        0.675    12.245505 
    9300     26.43479    12405 1.0421244e-05            0        0.675    12.245505 
    9400    26.733603    12405 1.0735463e-05            0        0.675    12.245505 
    9500    27.023525    12405 1.105471e-05            0        0.675    12.245505 
    9600    27.315137    12405 1.1274258e-05            0        0.675    12.245505 
    9700    27.606326    12405 1.1429326e-05            0        0.675    12.245505 
    9800    27.904052    12405 1.155796e-05            0        0.675    12.245505 
    9900    28.192359    12405 1.1769441e-05            0        0.675    12.245505 
   10000    28.492699    12405 1.2080662e-05            0        0.675    12.245505 
   10100    28.784425    12405 1.2301798e-05            0        0.675    12.245505 
   10200    29.065914    12405 1.2538205e-05            0        0.675    12.245505 
   10300     29.35265    12405 1.2775504e-05            0        0.675    12.245505 
   10400    29.635025    12405 1.2927065e-05            0        0.675    12.245505 
   10500    29.918359    12405 1.3087038e-05            0        0.675    12.245505 
   10600    30.206856    12405 1.3198742e-05            0        0.675    12.245505 
   10700    30.486404    12405 1.334877e-05            0        0.675    12.245505 
   10800    30.763454    12405 1.348501e-05            0        0.675    12.245505 
   10900    31.039497    12405 1.351223e-05            0        0.675    12.245505 
   11000    31.326713    12405 1.3601403e-05            0        0.675    12.245505 
   11100    31.598699    12405 1.3707328e-05            0        0.675    12.245505 
   11200     31.86842    12405 1.3901816e-05            0        0.675    12.245505 
   11300    32.135369    12405 1.3992225e-05            0        0.675    12.245505 
   11400    32.401273    12405 1.3945824e-05            0        0.675    12.245505 
   11500    32.665184    12405 1.3915733e-05            0        0.675    12.245505 
   11600    32.925563    12405 1.3981354e-05            0        0.675    12.245505 
   11700    33.185402    12405 1.4075664e-05            0        0.675    12.245505 
   11800    33.443095    12405 1.4101235e-05            0        0.675    12.245505 
   11900    33.704591    12405 1.4053729e-05            0        0.675    12.245505 
   12000     33.96988    12405 1.4025542e-05            0        0.675    12.245505 
   12100    34.221688    12405 1.3976454e-05            0        0.675    12.245505 
   12200     34.47077    12405 1.3927819e-05            0        0.675    12.245505 
   12300    34.716621    12405 1.3896768e-05            0        0.675    12.245505 
   12400    34.962174    12405 1.3927322e-05            0        0.675    12.245505 
   12500    35.205801    12405 1.3880221e-05            0        0.675    12.245505 
   12600     35.44752    12405 1.3845919e-05            0        0.675    12.245505 
   12700    35.681699    12405 1.3778072e-05            0        0.675    12.245505 
   12800    35.919598    12405 1.3667959e-05            0        0.675    12.245505 
   12900    36.156602    12405 1.3581908e-05            0        0.675    12.245505 
   13000    36.402089    12405 1.3418101e-05            0        0.675    12.245505 
   13100    36.633717    12405 1.3281748e-05            0        0.675    12.245505 
   13200    36.863878    12405 1.3235195e-05            0        0.675    12.245505 
   13300     37.09128    12405 1.3114136e-05            0        0.675    12.245505 
   13400    37.316285    12405 1.2954245e-05            0        0.675    12.245505 
   13500    37.540534    12405 1.2792214e-05            0        0.675    12.245505 
   13600    37.762207    12405 1.2641461e-05            0        0.675    12.245505 
   13700    37.982923    12405 1.2445591e-05            0        0.675    12.245505 
   13800    38.196188    12405 1.2228841e-05            0        0.675    12.245505 
   13900    38.416753    12405 1.2115027e-05            0        0.675    12.245505 
   14000     38.64277    12405 1.1902229e-05            0        0.675    12.245505 
   14100    38.855838    12405 1.172857e-05            0        0.675    12.245505 
   14200    39.066077    12405 1.1567164e-05            0        0.675    12.245505 
   14300    39.275207    12405 1.1385181e-05            0        0.675    12.245505 
   14400    39.478843    12405 1.1216851e-05            0        0.675    12.245505 
   14500    39.684239    12405 1.1026006e-05            0        0.675    12.245505 
   14600    39.884013    12405 1.0786646e-05            0        0.675    12.245505 
   14700    40.080941    12405 1.0577697e-05            0        0.675    12.245505 
   14800    40.278473    12405 1.0386763e-05            0        0.675    12.245505 
   14900    40.472257    12405 1.0200207e-05            0        0.675    12.245505 
   15000    40.675013    12405 1.0001314e-05            0        0.675    12.245505 
Loop time of 40.6751 on 8 procs for 15000 steps with 12405 atoms

Performance: 318.623 tau/day, 368.776 timesteps/s
99.9% CPU use with 8 MPI tasks x no OpenMP threads

MPI task timing breakdown:
Section |  min time  |  avg time  |  max time  |%varavg| %total
---------------------------------------------------------------
Pair    | 0.0015778  | 6.7283     | 21.016     | 288.4 | 16.54
Neigh   | 0.0022097  | 0.75025    | 4.3191     | 159.5 |  1.84
Comm    | 0.12       | 4.6996     | 13.81      | 270.9 | 11.55
Output  | 0.34751    | 0.39984    | 0.41423    |   3.2 |  0.98
Modify  | 8.3408     | 22.587     | 33.608     | 236.4 | 55.53
Other   |            | 5.51       |            |       | 13.55

Nlocal:    1550.62 ave 4241 max 0 min
Histogram: 4 0 0 0 2 0 0 0 0 2
Nghost:    112.5 ave 344 max 0 min
Histogram: 4 0 0 2 0 0 0 0 0 2
Neighs:    8600.25 ave 29538 max 0 min
Histogram: 4 2 0 0 0 0 0 0 0 2

Total # of neighbors = 68802
Ave neighs/atom = 5.54631
Neighbor list builds = 639
Dangerous builds = 0
WARNING: One or more atoms are time integrated more than once (../modify.cpp:289)
Total wall time: 0:00:40
