ITEM: TIMESTEP
0
ITEM: NUMBER OF ATOMS
1
ITEM: BOX BOUNDS pp ff pp
0.0000000000000000e+00 1.5000000000000000e+00
0.0000000000000000e+00 4.5000000000000001e-01
-5.0000000000000000e-01 5.0000000000000000e-01
ITEM: ATOMS id type radius mass x y z fx fy fz vx vy vz 
8275 4 0.001 6.72248e-05 0.224194 0.0892789 0 0.00266815 0.0666396 0 -0.000528466 -0.00198381 0 
ITEM: TIMESTEP
20
ITEM: NUMBER OF ATOMS
1
ITEM: BOX BOUNDS pp ff pp
0.0000000000000000e+00 1.5000000000000000e+00
0.0000000000000000e+00 4.5000000000000001e-01
-5.0000000000000000e-01 5.0000000000000000e-01
ITEM: ATOMS id type radius mass x y z fx fy fz vx vy vz 
8275 4 0.001 6.72248e-05 0.224194 0.0892785 0 0.0166755 0.0666674 0 -0.000515717 -0.00198282 0 
ITEM: TIMESTEP
40
ITEM: NUMBER OF ATOMS
1
ITEM: BOX BOUNDS pp ff pp
0.0000000000000000e+00 1.5000000000000000e+00
0.0000000000000000e+00 4.5000000000000001e-01
-5.0000000000000000e-01 5.0000000000000000e-01
ITEM: ATOMS id type radius mass x y z fx fy fz vx vy vz 
8275 4 0.001 6.72248e-05 0.224194 0.0892781 0 0.0306824 0.0666951 0 -0.000470893 -0.00197723 0 
ITEM: TIMESTEP
60
ITEM: NUMBER OF ATOMS
1
ITEM: BOX BOUNDS pp ff pp
0.0000000000000000e+00 1.5000000000000000e+00
0.0000000000000000e+00 4.5000000000000001e-01
-5.0000000000000000e-01 5.0000000000000000e-01
ITEM: ATOMS id type radius mass x y z fx fy fz vx vy vz 
8275 4 0.001 6.72248e-05 0.224194 0.0892777 0 0.0446885 0.0667227 0 -0.000396826 -0.00197125 0 
ITEM: TIMESTEP
80
ITEM: NUMBER OF ATOMS
1
ITEM: BOX BOUNDS pp ff pp
0.0000000000000000e+00 1.5000000000000000e+00
0.0000000000000000e+00 4.5000000000000001e-01
-5.0000000000000000e-01 5.0000000000000000e-01
ITEM: ATOMS id type radius mass x y z fx fy fz vx vy vz 
8275 4 0.001 6.72248e-05 0.224194 0.0892773 0 0.0586934 0.0667503 0 -0.000295464 -0.0019649 0 
ITEM: TIMESTEP
100
ITEM: NUMBER OF ATOMS
1
ITEM: BOX BOUNDS pp ff pp
0.0000000000000000e+00 1.5000000000000000e+00
0.0000000000000000e+00 4.5000000000000001e-01
-5.0000000000000000e-01 5.0000000000000000e-01
ITEM: ATOMS id type radius mass x y z fx fy fz vx vy vz 
8275 4 0.001 6.72248e-05 0.224193 0.0892769 0 0.0726967 0.0667778 0 -0.000168254 -0.00195822 0 
ITEM: TIMESTEP
120
ITEM: NUMBER OF ATOMS
1
ITEM: BOX BOUNDS pp ff pp
0.0000000000000000e+00 1.5000000000000000e+00
0.0000000000000000e+00 4.5000000000000001e-01
-5.0000000000000000e-01 5.0000000000000000e-01
ITEM: ATOMS id type radius mass x y z fx fy fz vx vy vz 
8275 4 0.001 6.72248e-05 0.224193 0.0892765 0 0.086698 0.0668051 0 -1.62921e-05 -0.00195126 0 
ITEM: TIMESTEP
140
ITEM: NUMBER OF ATOMS
1
ITEM: BOX BOUNDS pp ff pp
0.0000000000000000e+00 1.5000000000000000e+00
0.0000000000000000e+00 4.5000000000000001e-01
-5.0000000000000000e-01 5.0000000000000000e-01
ITEM: ATOMS id type radius mass x y z fx fy fz vx vy vz 
8275 4 0.001 6.72248e-05 0.224193 0.0892761 0 0.100697 0.0668324 0 0.000159569 -0.00194411 0 
ITEM: TIMESTEP
160
ITEM: NUMBER OF ATOMS
1
ITEM: BOX BOUNDS pp ff pp
0.0000000000000000e+00 1.5000000000000000e+00
0.0000000000000000e+00 4.5000000000000001e-01
-5.0000000000000000e-01 5.0000000000000000e-01
ITEM: ATOMS id type radius mass x y z fx fy fz vx vy vz 
8275 4 0.001 6.72248e-05 0.224194 0.0892758 0 0.114693 0.0668596 0 0.000358508 -0.00193652 0 
ITEM: TIMESTEP
180
ITEM: NUMBER OF ATOMS
1
ITEM: BOX BOUNDS pp ff pp
0.0000000000000000e+00 1.5000000000000000e+00
0.0000000000000000e+00 4.5000000000000001e-01
-5.0000000000000000e-01 5.0000000000000000e-01
ITEM: ATOMS id type radius mass x y z fx fy fz vx vy vz 
8275 4 0.001 6.72248e-05 0.224194 0.0892754 0 0.128687 0.0668866 0 0.000578625 -0.00192546 0 
ITEM: TIMESTEP
200
ITEM: NUMBER OF ATOMS
1
ITEM: BOX BOUNDS pp ff pp
0.0000000000000000e+00 1.5000000000000000e+00
0.0000000000000000e+00 4.5000000000000001e-01
-5.0000000000000000e-01 5.0000000000000000e-01
ITEM: ATOMS id type radius mass x y z fx fy fz vx vy vz 
8275 4 0.001 6.72248e-05 0.224194 0.089275 0 0.142677 0.0669135 0 0.000821118 -0.00191498 0 
ITEM: TIMESTEP
220
ITEM: NUMBER OF ATOMS
1
ITEM: BOX BOUNDS pp ff pp
0.0000000000000000e+00 1.5000000000000000e+00
0.0000000000000000e+00 4.5000000000000001e-01
-5.0000000000000000e-01 5.0000000000000000e-01
ITEM: ATOMS id type radius mass x y z fx fy fz vx vy vz 
8275 4 0.001 6.72248e-05 0.224194 0.0892746 0 0.156664 0.0669402 0 0.00108542 -0.0019049 0 
ITEM: TIMESTEP
240
ITEM: NUMBER OF ATOMS
1
ITEM: BOX BOUNDS pp ff pp
0.0000000000000000e+00 1.5000000000000000e+00
0.0000000000000000e+00 4.5000000000000001e-01
-5.0000000000000000e-01 5.0000000000000000e-01
ITEM: ATOMS id type radius mass x y z fx fy fz vx vy vz 
8275 4 0.001 6.72248e-05 0.224194 0.0892742 0 0.170647 0.0669668 0 0.00137102 -0.0018951 0 
ITEM: TIMESTEP
260
ITEM: NUMBER OF ATOMS
1
ITEM: BOX BOUNDS pp ff pp
0.0000000000000000e+00 1.5000000000000000e+00
0.0000000000000000e+00 4.5000000000000001e-01
-5.0000000000000000e-01 5.0000000000000000e-01
ITEM: ATOMS id type radius mass x y z fx fy fz vx vy vz 
8275 4 0.001 6.72248e-05 0.224194 0.0892738 0 0.184625 0.0669933 0 0.00167745 -0.00188554 0 
ITEM: TIMESTEP
280
ITEM: NUMBER OF ATOMS
1
ITEM: BOX BOUNDS pp ff pp
0.0000000000000000e+00 1.5000000000000000e+00
0.0000000000000000e+00 4.5000000000000001e-01
-5.0000000000000000e-01 5.0000000000000000e-01
ITEM: ATOMS id type radius mass x y z fx fy fz vx vy vz 
8275 4 0.001 6.72248e-05 0.224195 0.0892735 0 0.1986 0.0670196 0 0.00200427 -0.00187615 0 
ITEM: TIMESTEP
300
ITEM: NUMBER OF ATOMS
1
ITEM: BOX BOUNDS pp ff pp
0.0000000000000000e+00 1.5000000000000000e+00
0.0000000000000000e+00 4.5000000000000001e-01
-5.0000000000000000e-01 5.0000000000000000e-01
ITEM: ATOMS id type radius mass x y z fx fy fz vx vy vz 
8275 4 0.001 6.72248e-05 0.224195 0.0892731 0 0.212569 0.0670458 0 0.00235127 -0.00186683 0 
ITEM: TIMESTEP
320
ITEM: NUMBER OF ATOMS
1
ITEM: BOX BOUNDS pp ff pp
0.0000000000000000e+00 1.5000000000000000e+00
0.0000000000000000e+00 4.5000000000000001e-01
-5.0000000000000000e-01 5.0000000000000000e-01
ITEM: ATOMS id type radius mass x y z fx fy fz vx vy vz 
8275 4 0.001 6.72248e-05 0.224196 0.0892727 0 0.226534 0.0670719 0 0.00271911 -0.00185741 0 
ITEM: TIMESTEP
340
ITEM: NUMBER OF ATOMS
1
ITEM: BOX BOUNDS pp ff pp
0.0000000000000000e+00 1.5000000000000000e+00
0.0000000000000000e+00 4.5000000000000001e-01
-5.0000000000000000e-01 5.0000000000000000e-01
ITEM: ATOMS id type radius mass x y z fx fy fz vx vy vz 
8275 4 0.001 6.72248e-05 0.224196 0.0892724 0 0.240493 0.0670978 0 0.00310576 -0.00184838 0 
ITEM: TIMESTEP
360
ITEM: NUMBER OF ATOMS
1
ITEM: BOX BOUNDS pp ff pp
0.0000000000000000e+00 1.5000000000000000e+00
0.0000000000000000e+00 4.5000000000000001e-01
-5.0000000000000000e-01 5.0000000000000000e-01
ITEM: ATOMS id type radius mass x y z fx fy fz vx vy vz 
8275 4 0.001 6.72248e-05 0.224197 0.089272 0 0.254447 0.0671236 0 0.00351098 -0.00183961 0 
ITEM: TIMESTEP
380
ITEM: NUMBER OF ATOMS
1
ITEM: BOX BOUNDS pp ff pp
0.0000000000000000e+00 1.5000000000000000e+00
0.0000000000000000e+00 4.5000000000000001e-01
-5.0000000000000000e-01 5.0000000000000000e-01
ITEM: ATOMS id type radius mass x y z fx fy fz vx vy vz 
8275 4 0.001 6.72248e-05 0.224198 0.0892716 0 0.268395 0.0671493 0 0.00393445 -0.00183101 0 
ITEM: TIMESTEP
400
ITEM: NUMBER OF ATOMS
1
ITEM: BOX BOUNDS pp ff pp
0.0000000000000000e+00 1.5000000000000000e+00
0.0000000000000000e+00 4.5000000000000001e-01
-5.0000000000000000e-01 5.0000000000000000e-01
ITEM: ATOMS id type radius mass x y z fx fy fz vx vy vz 
8275 4 0.001 6.72248e-05 0.224199 0.0892713 0 0.282336 0.0671749 0 0.00437586 -0.0018225 0 
ITEM: TIMESTEP
420
ITEM: NUMBER OF ATOMS
1
ITEM: BOX BOUNDS pp ff pp
0.0000000000000000e+00 1.5000000000000000e+00
0.0000000000000000e+00 4.5000000000000001e-01
-5.0000000000000000e-01 5.0000000000000000e-01
ITEM: ATOMS id type radius mass x y z fx fy fz vx vy vz 
8275 4 0.001 6.72248e-05 0.2242 0.0892709 0 0.296272 0.0672004 0 0.0048349 -0.00181402 0 
ITEM: TIMESTEP
440
ITEM: NUMBER OF ATOMS
1
ITEM: BOX BOUNDS pp ff pp
0.0000000000000000e+00 1.5000000000000000e+00
0.0000000000000000e+00 4.5000000000000001e-01
-5.0000000000000000e-01 5.0000000000000000e-01
ITEM: ATOMS id type radius mass x y z fx fy fz vx vy vz 
8275 4 0.001 6.72248e-05 0.224201 0.0892705 0 0.310201 0.0672257 0 0.00531313 -0.00180466 0 
ITEM: TIMESTEP
460
ITEM: NUMBER OF ATOMS
1
ITEM: BOX BOUNDS pp ff pp
0.0000000000000000e+00 1.5000000000000000e+00
0.0000000000000000e+00 4.5000000000000001e-01
-5.0000000000000000e-01 5.0000000000000000e-01
ITEM: ATOMS id type radius mass x y z fx fy fz vx vy vz 
8275 4 0.001 6.72248e-05 0.224202 0.0892702 0 0.324123 0.0672509 0 0.00580885 -0.00179528 0 
ITEM: TIMESTEP
480
ITEM: NUMBER OF ATOMS
1
ITEM: BOX BOUNDS pp ff pp
0.0000000000000000e+00 1.5000000000000000e+00
0.0000000000000000e+00 4.5000000000000001e-01
-5.0000000000000000e-01 5.0000000000000000e-01
ITEM: ATOMS id type radius mass x y z fx fy fz vx vy vz 
8275 4 0.001 6.72248e-05 0.224203 0.0892698 0 0.338038 0.067276 0 0.00632154 -0.00178589 0 
ITEM: TIMESTEP
500
ITEM: NUMBER OF ATOMS
1
ITEM: BOX BOUNDS pp ff pp
0.0000000000000000e+00 1.5000000000000000e+00
0.0000000000000000e+00 4.5000000000000001e-01
-5.0000000000000000e-01 5.0000000000000000e-01
ITEM: ATOMS id type radius mass x y z fx fy fz vx vy vz 
8275 4 0.001 6.72248e-05 0.224204 0.0892695 0 0.351946 0.0673009 0 0.00685019 -0.00177549 0 
ITEM: TIMESTEP
520
ITEM: NUMBER OF ATOMS
1
ITEM: BOX BOUNDS pp ff pp
0.0000000000000000e+00 1.5000000000000000e+00
0.0000000000000000e+00 4.5000000000000001e-01
-5.0000000000000000e-01 5.0000000000000000e-01
ITEM: ATOMS id type radius mass x y z fx fy fz vx vy vz 
8275 4 0.001 6.72248e-05 0.224206 0.0892691 0 0.365846 0.0673257 0 0.00739515 -0.00176354 0 
ITEM: TIMESTEP
540
ITEM: NUMBER OF ATOMS
1
ITEM: BOX BOUNDS pp ff pp
0.0000000000000000e+00 1.5000000000000000e+00
0.0000000000000000e+00 4.5000000000000001e-01
-5.0000000000000000e-01 5.0000000000000000e-01
ITEM: ATOMS id type radius mass x y z fx fy fz vx vy vz 
8275 4 0.001 6.72248e-05 0.224207 0.0892687 0 0.379739 0.0673503 0 0.00795763 -0.00175238 0 
ITEM: TIMESTEP
560
ITEM: NUMBER OF ATOMS
1
ITEM: BOX BOUNDS pp ff pp
0.0000000000000000e+00 1.5000000000000000e+00
0.0000000000000000e+00 4.5000000000000001e-01
-5.0000000000000000e-01 5.0000000000000000e-01
ITEM: ATOMS id type radius mass x y z fx fy fz vx vy vz 
8275 4 0.001 6.72248e-05 0.224209 0.0892684 0 0.393623 0.0673747 0 0.00853634 -0.00174146 0 
ITEM: TIMESTEP
580
ITEM: NUMBER OF ATOMS
1
ITEM: BOX BOUNDS pp ff pp
0.0000000000000000e+00 1.5000000000000000e+00
0.0000000000000000e+00 4.5000000000000001e-01
-5.0000000000000000e-01 5.0000000000000000e-01
ITEM: ATOMS id type radius mass x y z fx fy fz vx vy vz 
8275 4 0.001 6.72248e-05 0.224211 0.0892681 0 0.4075 0.067399 0 0.00913047 -0.00173046 0 
ITEM: TIMESTEP
600
ITEM: NUMBER OF ATOMS
1
ITEM: BOX BOUNDS pp ff pp
0.0000000000000000e+00 1.5000000000000000e+00
0.0000000000000000e+00 4.5000000000000001e-01
-5.0000000000000000e-01 5.0000000000000000e-01
ITEM: ATOMS id type radius mass x y z fx fy fz vx vy vz 
8275 4 0.001 6.72248e-05 0.224212 0.0892677 0 0.421368 0.0674232 0 0.00973949 -0.00171917 0 
ITEM: TIMESTEP
620
ITEM: NUMBER OF ATOMS
1
ITEM: BOX BOUNDS pp ff pp
0.0000000000000000e+00 1.5000000000000000e+00
0.0000000000000000e+00 4.5000000000000001e-01
-5.0000000000000000e-01 5.0000000000000000e-01
ITEM: ATOMS id type radius mass x y z fx fy fz vx vy vz 
8275 4 0.001 6.72248e-05 0.224214 0.0892674 0 0.435227 0.0674472 0 0.010363 -0.00170745 0 
ITEM: TIMESTEP
640
ITEM: NUMBER OF ATOMS
1
ITEM: BOX BOUNDS pp ff pp
0.0000000000000000e+00 1.5000000000000000e+00
0.0000000000000000e+00 4.5000000000000001e-01
-5.0000000000000000e-01 5.0000000000000000e-01
ITEM: ATOMS id type radius mass x y z fx fy fz vx vy vz 
8275 4 0.001 6.72248e-05 0.224217 0.089267 0 0.449077 0.067471 0 0.0110007 -0.00169517 0 
ITEM: TIMESTEP
660
ITEM: NUMBER OF ATOMS
1
ITEM: BOX BOUNDS pp ff pp
0.0000000000000000e+00 1.5000000000000000e+00
0.0000000000000000e+00 4.5000000000000001e-01
-5.0000000000000000e-01 5.0000000000000000e-01
ITEM: ATOMS id type radius mass x y z fx fy fz vx vy vz 
8275 4 0.001 6.72248e-05 0.224219 0.0892667 0 0.462919 0.0674946 0 0.0116524 -0.00168221 0 
ITEM: TIMESTEP
680
ITEM: NUMBER OF ATOMS
1
ITEM: BOX BOUNDS pp ff pp
0.0000000000000000e+00 1.5000000000000000e+00
0.0000000000000000e+00 4.5000000000000001e-01
-5.0000000000000000e-01 5.0000000000000000e-01
ITEM: ATOMS id type radius mass x y z fx fy fz vx vy vz 
8275 4 0.001 6.72248e-05 0.224221 0.0892664 0 0.476751 0.0675181 0 0.0123215 -0.00166567 0 
ITEM: TIMESTEP
700
ITEM: NUMBER OF ATOMS
1
ITEM: BOX BOUNDS pp ff pp
0.0000000000000000e+00 1.5000000000000000e+00
0.0000000000000000e+00 4.5000000000000001e-01
-5.0000000000000000e-01 5.0000000000000000e-01
ITEM: ATOMS id type radius mass x y z fx fy fz vx vy vz 
8275 4 0.001 6.72248e-05 0.224224 0.089266 0 0.490574 0.0675412 0 0.0130147 -0.0016399 0 
ITEM: TIMESTEP
720
ITEM: NUMBER OF ATOMS
1
ITEM: BOX BOUNDS pp ff pp
0.0000000000000000e+00 1.5000000000000000e+00
0.0000000000000000e+00 4.5000000000000001e-01
-5.0000000000000000e-01 5.0000000000000000e-01
ITEM: ATOMS id type radius mass x y z fx fy fz vx vy vz 
8275 4 0.001 6.72248e-05 0.224226 0.0892657 0 0.504387 0.067564 0 0.0137213 -0.00161306 0 
ITEM: TIMESTEP
740
ITEM: NUMBER OF ATOMS
1
ITEM: BOX BOUNDS pp ff pp
0.0000000000000000e+00 1.5000000000000000e+00
0.0000000000000000e+00 4.5000000000000001e-01
-5.0000000000000000e-01 5.0000000000000000e-01
ITEM: ATOMS id type radius mass x y z fx fy fz vx vy vz 
8275 4 0.001 6.72248e-05 0.224229 0.0892654 0 0.518189 0.0675864 0 0.014443 -0.00158453 0 
ITEM: TIMESTEP
760
ITEM: NUMBER OF ATOMS
1
ITEM: BOX BOUNDS pp ff pp
0.0000000000000000e+00 1.5000000000000000e+00
0.0000000000000000e+00 4.5000000000000001e-01
-5.0000000000000000e-01 5.0000000000000000e-01
ITEM: ATOMS id type radius mass x y z fx fy fz vx vy vz 
8275 4 0.001 6.72248e-05 0.224232 0.0892651 0 0.531982 0.0676083 0 0.0151797 -0.0015542 0 
ITEM: TIMESTEP
780
ITEM: NUMBER OF ATOMS
1
ITEM: BOX BOUNDS pp ff pp
0.0000000000000000e+00 1.5000000000000000e+00
0.0000000000000000e+00 4.5000000000000001e-01
-5.0000000000000000e-01 5.0000000000000000e-01
ITEM: ATOMS id type radius mass x y z fx fy fz vx vy vz 
8275 4 0.001 6.72248e-05 0.224235 0.0892648 0 0.545764 0.0676299 0 0.01593 -0.00152265 0 
ITEM: TIMESTEP
800
ITEM: NUMBER OF ATOMS
1
ITEM: BOX BOUNDS pp ff pp
0.0000000000000000e+00 1.5000000000000000e+00
0.0000000000000000e+00 4.5000000000000001e-01
-5.0000000000000000e-01 5.0000000000000000e-01
ITEM: ATOMS id type radius mass x y z fx fy fz vx vy vz 
8275 4 0.001 6.72248e-05 0.224239 0.0892645 0 0.559536 0.067651 0 0.0166945 -0.00148977 0 
ITEM: TIMESTEP
820
ITEM: NUMBER OF ATOMS
1
ITEM: BOX BOUNDS pp ff pp
0.0000000000000000e+00 1.5000000000000000e+00
0.0000000000000000e+00 4.5000000000000001e-01
-5.0000000000000000e-01 5.0000000000000000e-01
ITEM: ATOMS id type radius mass x y z fx fy fz vx vy vz 
8275 4 0.001 6.72248e-05 0.224242 0.0892642 0 0.573297 0.0676716 0 0.0174728 -0.00145554 0 
ITEM: TIMESTEP
840
ITEM: NUMBER OF ATOMS
1
ITEM: BOX BOUNDS pp ff pp
0.0000000000000000e+00 1.5000000000000000e+00
0.0000000000000000e+00 4.5000000000000001e-01
-5.0000000000000000e-01 5.0000000000000000e-01
ITEM: ATOMS id type radius mass x y z fx fy fz vx vy vz 
8275 4 0.001 6.72248e-05 0.224246 0.0892639 0 0.587047 0.0676917 0 0.0182655 -0.00141854 0 
ITEM: TIMESTEP
860
ITEM: NUMBER OF ATOMS
1
ITEM: BOX BOUNDS pp ff pp
0.0000000000000000e+00 1.5000000000000000e+00
0.0000000000000000e+00 4.5000000000000001e-01
-5.0000000000000000e-01 5.0000000000000000e-01
ITEM: ATOMS id type radius mass x y z fx fy fz vx vy vz 
8275 4 0.001 6.72248e-05 0.224249 0.0892636 0 0.600785 0.0677113 0 0.0190736 -0.00137732 0 
ITEM: TIMESTEP
880
ITEM: NUMBER OF ATOMS
1
ITEM: BOX BOUNDS pp ff pp
0.0000000000000000e+00 1.5000000000000000e+00
0.0000000000000000e+00 4.5000000000000001e-01
-5.0000000000000000e-01 5.0000000000000000e-01
ITEM: ATOMS id type radius mass x y z fx fy fz vx vy vz 
8275 4 0.001 6.72248e-05 0.224253 0.0892633 0 0.614513 0.0677303 0 0.0198894 -0.00133089 0 
ITEM: TIMESTEP
900
ITEM: NUMBER OF ATOMS
1
ITEM: BOX BOUNDS pp ff pp
0.0000000000000000e+00 1.5000000000000000e+00
0.0000000000000000e+00 4.5000000000000001e-01
-5.0000000000000000e-01 5.0000000000000000e-01
ITEM: ATOMS id type radius mass x y z fx fy fz vx vy vz 
8275 4 0.001 6.72248e-05 0.224257 0.0892631 0 0.628228 0.0677486 0 0.0207163 -0.00128417 0 
ITEM: TIMESTEP
920
ITEM: NUMBER OF ATOMS
1
ITEM: BOX BOUNDS pp ff pp
0.0000000000000000e+00 1.5000000000000000e+00
0.0000000000000000e+00 4.5000000000000001e-01
-5.0000000000000000e-01 5.0000000000000000e-01
ITEM: ATOMS id type radius mass x y z fx fy fz vx vy vz 
8275 4 0.001 6.72248e-05 0.224262 0.0892628 0 0.641933 0.0677662 0 0.0215566 -0.00123924 0 
ITEM: TIMESTEP
940
ITEM: NUMBER OF ATOMS
1
ITEM: BOX BOUNDS pp ff pp
0.0000000000000000e+00 1.5000000000000000e+00
0.0000000000000000e+00 4.5000000000000001e-01
-5.0000000000000000e-01 5.0000000000000000e-01
ITEM: ATOMS id type radius mass x y z fx fy fz vx vy vz 
8275 4 0.001 6.72248e-05 0.224266 0.0892626 0 0.655625 0.0677833 0 0.0224093 -0.00119464 0 
ITEM: TIMESTEP
960
ITEM: NUMBER OF ATOMS
1
ITEM: BOX BOUNDS pp ff pp
0.0000000000000000e+00 1.5000000000000000e+00
0.0000000000000000e+00 4.5000000000000001e-01
-5.0000000000000000e-01 5.0000000000000000e-01
ITEM: ATOMS id type radius mass x y z fx fy fz vx vy vz 
8275 4 0.001 6.72248e-05 0.22427 0.0892623 0 0.669305 0.0677997 0 0.0232738 -0.00114957 0 
ITEM: TIMESTEP
980
ITEM: NUMBER OF ATOMS
1
ITEM: BOX BOUNDS pp ff pp
0.0000000000000000e+00 1.5000000000000000e+00
0.0000000000000000e+00 4.5000000000000001e-01
-5.0000000000000000e-01 5.0000000000000000e-01
ITEM: ATOMS id type radius mass x y z fx fy fz vx vy vz 
8275 4 0.001 6.72248e-05 0.224275 0.0892621 0 0.682973 0.0678154 0 0.024152 -0.00110193 0 
ITEM: TIMESTEP
1000
ITEM: NUMBER OF ATOMS
1
ITEM: BOX BOUNDS pp ff pp
0.0000000000000000e+00 1.5000000000000000e+00
0.0000000000000000e+00 4.5000000000000001e-01
-5.0000000000000000e-01 5.0000000000000000e-01
ITEM: ATOMS id type radius mass x y z fx fy fz vx vy vz 
8275 4 0.001 6.72248e-05 0.22428 0.0892619 0 0.696629 0.0678305 0 0.0250414 -0.00105257 0 
ITEM: TIMESTEP
1020
ITEM: NUMBER OF ATOMS
1
ITEM: BOX BOUNDS pp ff pp
0.0000000000000000e+00 1.5000000000000000e+00
0.0000000000000000e+00 4.5000000000000001e-01
-5.0000000000000000e-01 5.0000000000000000e-01
ITEM: ATOMS id type radius mass x y z fx fy fz vx vy vz 
8275 4 0.001 6.72248e-05 0.224285 0.0892617 0 0.710272 0.0678449 0 0.025941 -0.00100205 0 
ITEM: TIMESTEP
1040
ITEM: NUMBER OF ATOMS
1
ITEM: BOX BOUNDS pp ff pp
0.0000000000000000e+00 1.5000000000000000e+00
0.0000000000000000e+00 4.5000000000000001e-01
-5.0000000000000000e-01 5.0000000000000000e-01
ITEM: ATOMS id type radius mass x y z fx fy fz vx vy vz 
8275 4 0.001 6.72248e-05 0.224291 0.0892615 0 0.723902 0.0678586 0 0.026851 -0.000950338 0 
ITEM: TIMESTEP
1060
ITEM: NUMBER OF ATOMS
1
ITEM: BOX BOUNDS pp ff pp
0.0000000000000000e+00 1.5000000000000000e+00
0.0000000000000000e+00 4.5000000000000001e-01
-5.0000000000000000e-01 5.0000000000000000e-01
ITEM: ATOMS id type radius mass x y z fx fy fz vx vy vz 
8275 4 0.001 6.72248e-05 0.224296 0.0892613 0 0.73752 0.0678715 0 0.0277722 -0.000897508 0 
ITEM: TIMESTEP
1080
ITEM: NUMBER OF ATOMS
1
ITEM: BOX BOUNDS pp ff pp
0.0000000000000000e+00 1.5000000000000000e+00
0.0000000000000000e+00 4.5000000000000001e-01
-5.0000000000000000e-01 5.0000000000000000e-01
ITEM: ATOMS id type radius mass x y z fx fy fz vx vy vz 
8275 4 0.001 6.72248e-05 0.224302 0.0892611 0 0.751125 0.0678837 0 0.0287053 -0.000843571 0 
ITEM: TIMESTEP
1100
ITEM: NUMBER OF ATOMS
1
ITEM: BOX BOUNDS pp ff pp
0.0000000000000000e+00 1.5000000000000000e+00
0.0000000000000000e+00 4.5000000000000001e-01
-5.0000000000000000e-01 5.0000000000000000e-01
ITEM: ATOMS id type radius mass x y z fx fy fz vx vy vz 
8275 4 0.001 6.72248e-05 0.224307 0.089261 0 0.764716 0.0678951 0 0.0296507 -0.000787917 0 
ITEM: TIMESTEP
1120
ITEM: NUMBER OF ATOMS
1
ITEM: BOX BOUNDS pp ff pp
0.0000000000000000e+00 1.5000000000000000e+00
0.0000000000000000e+00 4.5000000000000001e-01
-5.0000000000000000e-01 5.0000000000000000e-01
ITEM: ATOMS id type radius mass x y z fx fy fz vx vy vz 
8275 4 0.001 6.72248e-05 0.224314 0.0892608 0 0.778294 0.0679057 0 0.030611 -0.000727714 0 
ITEM: TIMESTEP
1140
ITEM: NUMBER OF ATOMS
1
ITEM: BOX BOUNDS pp ff pp
0.0000000000000000e+00 1.5000000000000000e+00
0.0000000000000000e+00 4.5000000000000001e-01
-5.0000000000000000e-01 5.0000000000000000e-01
ITEM: ATOMS id type radius mass x y z fx fy fz vx vy vz 
8275 4 0.001 6.72248e-05 0.22432 0.0892607 0 0.791859 0.0679155 0 0.031581 -0.00066645 0 
ITEM: TIMESTEP
1160
ITEM: NUMBER OF ATOMS
1
ITEM: BOX BOUNDS pp ff pp
0.0000000000000000e+00 1.5000000000000000e+00
0.0000000000000000e+00 4.5000000000000001e-01
-5.0000000000000000e-01 5.0000000000000000e-01
ITEM: ATOMS id type radius mass x y z fx fy fz vx vy vz 
8275 4 0.001 6.72248e-05 0.224326 0.0892605 0 0.80541 0.0679244 0 0.0325673 -0.000598873 0 
ITEM: TIMESTEP
1180
ITEM: NUMBER OF ATOMS
1
ITEM: BOX BOUNDS pp ff pp
0.0000000000000000e+00 1.5000000000000000e+00
0.0000000000000000e+00 4.5000000000000001e-01
-5.0000000000000000e-01 5.0000000000000000e-01
ITEM: ATOMS id type radius mass x y z fx fy fz vx vy vz 
8275 4 0.001 6.72248e-05 0.224333 0.0892604 0 0.818947 0.0679322 0 0.0335675 -0.000520598 0 
ITEM: TIMESTEP
1200
ITEM: NUMBER OF ATOMS
1
ITEM: BOX BOUNDS pp ff pp
0.0000000000000000e+00 1.5000000000000000e+00
0.0000000000000000e+00 4.5000000000000001e-01
-5.0000000000000000e-01 5.0000000000000000e-01
ITEM: ATOMS id type radius mass x y z fx fy fz vx vy vz 
8275 4 0.001 6.72248e-05 0.22434 0.0892603 0 0.83247 0.067939 0 0.0345788 -0.000442086 0 
ITEM: TIMESTEP
1220
ITEM: NUMBER OF ATOMS
1
ITEM: BOX BOUNDS pp ff pp
0.0000000000000000e+00 1.5000000000000000e+00
0.0000000000000000e+00 4.5000000000000001e-01
-5.0000000000000000e-01 5.0000000000000000e-01
ITEM: ATOMS id type radius mass x y z fx fy fz vx vy vz 
8275 4 0.001 6.72248e-05 0.224347 0.0892603 0 0.845979 0.0679446 0 0.0356027 -0.000359918 0 
ITEM: TIMESTEP
1240
ITEM: NUMBER OF ATOMS
1
ITEM: BOX BOUNDS pp ff pp
0.0000000000000000e+00 1.5000000000000000e+00
0.0000000000000000e+00 4.5000000000000001e-01
-5.0000000000000000e-01 5.0000000000000000e-01
ITEM: ATOMS id type radius mass x y z fx fy fz vx vy vz 
8275 4 0.001 6.72248e-05 0.224354 0.0892602 0 0.859473 0.067949 0 0.0366405 -0.000270355 0 
ITEM: TIMESTEP
1260
ITEM: NUMBER OF ATOMS
1
ITEM: BOX BOUNDS pp ff pp
0.0000000000000000e+00 1.5000000000000000e+00
0.0000000000000000e+00 4.5000000000000001e-01
-5.0000000000000000e-01 5.0000000000000000e-01
ITEM: ATOMS id type radius mass x y z fx fy fz vx vy vz 
8275 4 0.001 6.72248e-05 0.224361 0.0892602 0 0.872953 0.0679521 0 0.037689 -0.000176871 0 
ITEM: TIMESTEP
1280
ITEM: NUMBER OF ATOMS
1
ITEM: BOX BOUNDS pp ff pp
0.0000000000000000e+00 1.5000000000000000e+00
0.0000000000000000e+00 4.5000000000000001e-01
-5.0000000000000000e-01 5.0000000000000000e-01
ITEM: ATOMS id type radius mass x y z fx fy fz vx vy vz 
8275 4 0.001 6.72248e-05 0.224369 0.0892601 0 0.886418 0.0679539 0 0.0387605 -7.62258e-05 0 
ITEM: TIMESTEP
1300
ITEM: NUMBER OF ATOMS
1
ITEM: BOX BOUNDS pp ff pp
0.0000000000000000e+00 1.5000000000000000e+00
0.0000000000000000e+00 4.5000000000000001e-01
-5.0000000000000000e-01 5.0000000000000000e-01
ITEM: ATOMS id type radius mass x y z fx fy fz vx vy vz 
8275 4 0.001 6.72248e-05 0.224377 0.0892601 0 0.899867 0.0679542 0 0.0398452 3.46338e-05 0 
ITEM: TIMESTEP
1320
ITEM: NUMBER OF ATOMS
1
ITEM: BOX BOUNDS pp ff pp
0.0000000000000000e+00 1.5000000000000000e+00
0.0000000000000000e+00 4.5000000000000001e-01
-5.0000000000000000e-01 5.0000000000000000e-01
ITEM: ATOMS id type radius mass x y z fx fy fz vx vy vz 
8275 4 0.001 6.72248e-05 0.224385 0.0892601 0 0.913302 0.0679529 0 0.0409461 0.000146019 0 
ITEM: TIMESTEP
1340
ITEM: NUMBER OF ATOMS
1
ITEM: BOX BOUNDS pp ff pp
0.0000000000000000e+00 1.5000000000000000e+00
0.0000000000000000e+00 4.5000000000000001e-01
-5.0000000000000000e-01 5.0000000000000000e-01
ITEM: ATOMS id type radius mass x y z fx fy fz vx vy vz 
8275 4 0.001 6.72248e-05 0.224393 0.0892602 0 0.926721 0.0679501 0 0.0420631 0.000258559 0 
ITEM: TIMESTEP
1360
ITEM: NUMBER OF ATOMS
1
ITEM: BOX BOUNDS pp ff pp
0.0000000000000000e+00 1.5000000000000000e+00
0.0000000000000000e+00 4.5000000000000001e-01
-5.0000000000000000e-01 5.0000000000000000e-01
ITEM: ATOMS id type radius mass x y z fx fy fz vx vy vz 
8275 4 0.001 6.72248e-05 0.224402 0.0892602 0 0.940124 0.0679457 0 0.0431952 0.000372792 0 
ITEM: TIMESTEP
1380
ITEM: NUMBER OF ATOMS
1
ITEM: BOX BOUNDS pp ff pp
0.0000000000000000e+00 1.5000000000000000e+00
0.0000000000000000e+00 4.5000000000000001e-01
-5.0000000000000000e-01 5.0000000000000000e-01
ITEM: ATOMS id type radius mass x y z fx fy fz vx vy vz 
8275 4 0.001 6.72248e-05 0.22441 0.0892603 0 0.953511 0.0679397 0 0.0443417 0.000489118 0 
ITEM: TIMESTEP
1400
ITEM: NUMBER OF ATOMS
1
ITEM: BOX BOUNDS pp ff pp
0.0000000000000000e+00 1.5000000000000000e+00
0.0000000000000000e+00 4.5000000000000001e-01
-5.0000000000000000e-01 5.0000000000000000e-01
ITEM: ATOMS id type radius mass x y z fx fy fz vx vy vz 
8275 4 0.001 6.72248e-05 0.224419 0.0892604 0 0.966882 0.067932 0 0.045504 0.000611745 0 
ITEM: TIMESTEP
1420
ITEM: NUMBER OF ATOMS
1
ITEM: BOX BOUNDS pp ff pp
0.0000000000000000e+00 1.5000000000000000e+00
0.0000000000000000e+00 4.5000000000000001e-01
-5.0000000000000000e-01 5.0000000000000000e-01
ITEM: ATOMS id type radius mass x y z fx fy fz vx vy vz 
8275 4 0.001 6.72248e-05 0.224429 0.0892606 0 0.980237 0.0679225 0 0.0466803 0.000737854 0 
ITEM: TIMESTEP
1440
ITEM: NUMBER OF ATOMS
1
ITEM: BOX BOUNDS pp ff pp
0.0000000000000000e+00 1.5000000000000000e+00
0.0000000000000000e+00 4.5000000000000001e-01
-5.0000000000000000e-01 5.0000000000000000e-01
ITEM: ATOMS id type radius mass x y z fx fy fz vx vy vz 
8275 4 0.001 6.72248e-05 0.224438 0.0892607 0 0.993575 0.0679113 0 0.0478702 0.000866883 0 
ITEM: TIMESTEP
1460
ITEM: NUMBER OF ATOMS
1
ITEM: BOX BOUNDS pp ff pp
0.0000000000000000e+00 1.5000000000000000e+00
0.0000000000000000e+00 4.5000000000000001e-01
-5.0000000000000000e-01 5.0000000000000000e-01
ITEM: ATOMS id type radius mass x y z fx fy fz vx vy vz 
8275 4 0.001 6.72248e-05 0.224448 0.0892609 0 1.0069 0.0678982 0 0.0490697 0.00100705 0 
ITEM: TIMESTEP
1480
ITEM: NUMBER OF ATOMS
1
ITEM: BOX BOUNDS pp ff pp
0.0000000000000000e+00 1.5000000000000000e+00
0.0000000000000000e+00 4.5000000000000001e-01
-5.0000000000000000e-01 5.0000000000000000e-01
ITEM: ATOMS id type radius mass x y z fx fy fz vx vy vz 
8275 4 0.001 6.72248e-05 0.224458 0.0892611 0 1.0202 0.0678831 0 0.0502865 0.00115497 0 
ITEM: TIMESTEP
1500
ITEM: NUMBER OF ATOMS
1
ITEM: BOX BOUNDS pp ff pp
0.0000000000000000e+00 1.5000000000000000e+00
0.0000000000000000e+00 4.5000000000000001e-01
-5.0000000000000000e-01 5.0000000000000000e-01
ITEM: ATOMS id type radius mass x y z fx fy fz vx vy vz 
8275 4 0.001 6.72248e-05 0.224468 0.0892614 0 1.03349 0.0678658 0 0.0515208 0.00130864 0 
ITEM: TIMESTEP
1520
ITEM: NUMBER OF ATOMS
1
ITEM: BOX BOUNDS pp ff pp
0.0000000000000000e+00 1.5000000000000000e+00
0.0000000000000000e+00 4.5000000000000001e-01
-5.0000000000000000e-01 5.0000000000000000e-01
ITEM: ATOMS id type radius mass x y z fx fy fz vx vy vz 
8275 4 0.001 6.72248e-05 0.224478 0.0892617 0 1.04676 0.0678464 0 0.0527738 0.00147521 0 
ITEM: TIMESTEP
1540
ITEM: NUMBER OF ATOMS
1
ITEM: BOX BOUNDS pp ff pp
0.0000000000000000e+00 1.5000000000000000e+00
0.0000000000000000e+00 4.5000000000000001e-01
-5.0000000000000000e-01 5.0000000000000000e-01
ITEM: ATOMS id type radius mass x y z fx fy fz vx vy vz 
8275 4 0.001 6.72248e-05 0.224489 0.089262 0 1.06001 0.0678245 0 0.0540387 0.00164965 0 
ITEM: TIMESTEP
1560
ITEM: NUMBER OF ATOMS
1
ITEM: BOX BOUNDS pp ff pp
0.0000000000000000e+00 1.5000000000000000e+00
0.0000000000000000e+00 4.5000000000000001e-01
-5.0000000000000000e-01 5.0000000000000000e-01
ITEM: ATOMS id type radius mass x y z fx fy fz vx vy vz 
8275 4 0.001 6.72248e-05 0.2245 0.0892623 0 1.07325 0.0678001 0 0.0553191 0.00182926 0 
ITEM: TIMESTEP
1580
ITEM: NUMBER OF ATOMS
1
ITEM: BOX BOUNDS pp ff pp
0.0000000000000000e+00 1.5000000000000000e+00
0.0000000000000000e+00 4.5000000000000001e-01
-5.0000000000000000e-01 5.0000000000000000e-01
ITEM: ATOMS id type radius mass x y z fx fy fz vx vy vz 
8275 4 0.001 6.72248e-05 0.224511 0.0892627 0 1.08646 0.0677733 0 0.0566129 0.00201493 0 
ITEM: TIMESTEP
1600
ITEM: NUMBER OF ATOMS
1
ITEM: BOX BOUNDS pp ff pp
0.0000000000000000e+00 1.5000000000000000e+00
0.0000000000000000e+00 4.5000000000000001e-01
-5.0000000000000000e-01 5.0000000000000000e-01
ITEM: ATOMS id type radius mass x y z fx fy fz vx vy vz 
8275 4 0.001 6.72248e-05 0.224523 0.0892631 0 1.09966 0.0677435 0 0.0579046 0.0022436 0 
ITEM: TIMESTEP
1620
ITEM: NUMBER OF ATOMS
1
ITEM: BOX BOUNDS pp ff pp
0.0000000000000000e+00 1.5000000000000000e+00
0.0000000000000000e+00 4.5000000000000001e-01
-5.0000000000000000e-01 5.0000000000000000e-01
ITEM: ATOMS id type radius mass x y z fx fy fz vx vy vz 
8275 4 0.001 6.72248e-05 0.224534 0.0892636 0 1.11284 0.0677105 0 0.059214 0.00247377 0 
ITEM: TIMESTEP
1640
ITEM: NUMBER OF ATOMS
1
ITEM: BOX BOUNDS pp ff pp
0.0000000000000000e+00 1.5000000000000000e+00
0.0000000000000000e+00 4.5000000000000001e-01
-5.0000000000000000e-01 5.0000000000000000e-01
ITEM: ATOMS id type radius mass x y z fx fy fz vx vy vz 
8275 4 0.001 6.72248e-05 0.224546 0.0892641 0 1.126 0.067674 0 0.0605446 0.00273015 0 
ITEM: TIMESTEP
1660
ITEM: NUMBER OF ATOMS
1
ITEM: BOX BOUNDS pp ff pp
0.0000000000000000e+00 1.5000000000000000e+00
0.0000000000000000e+00 4.5000000000000001e-01
-5.0000000000000000e-01 5.0000000000000000e-01
ITEM: ATOMS id type radius mass x y z fx fy fz vx vy vz 