ITEM: TIMESTEP
0
ITEM: NUMBER OF ATOMS
1
ITEM: BOX BOUNDS pp ff pp
0.0000000000000000e+00 1.5000000000000000e+00
0.0000000000000000e+00 4.5000000000000001e-01
-5.0000000000000000e-01 5.0000000000000000e-01
ITEM: ATOMS id type radius mass x y z fx fy fz vx vy vz 
8275 4 0.001 6.72248e-05 0.223 0.122 0 0 -0.000672248 0 0 0 0 
ITEM: TIMESTEP
200
ITEM: NUMBER OF ATOMS
1
ITEM: BOX BOUNDS pp ff pp
0.0000000000000000e+00 1.5000000000000000e+00
0.0000000000000000e+00 4.5000000000000001e-01
-5.0000000000000000e-01 5.0000000000000000e-01
ITEM: ATOMS id type radius mass x y z fx fy fz vx vy vz 
8275 4 0.001 6.72248e-05 0.223 0.12198 0 0 -0.000672248 0 -3.32226e-16 -0.02 0 
ITEM: TIMESTEP
400
ITEM: NUMBER OF ATOMS
1
ITEM: BOX BOUNDS pp ff pp
0.0000000000000000e+00 1.5000000000000000e+00
0.0000000000000000e+00 4.5000000000000001e-01
-5.0000000000000000e-01 5.0000000000000000e-01
ITEM: ATOMS id type radius mass x y z fx fy fz vx vy vz 
8275 4 0.001 6.72248e-05 0.223 0.12192 0 0 -0.000672248 0 -6.64453e-16 -0.04 0 
ITEM: TIMESTEP
600
ITEM: NUMBER OF ATOMS
1
ITEM: BOX BOUNDS pp ff pp
0.0000000000000000e+00 1.5000000000000000e+00
0.0000000000000000e+00 4.5000000000000001e-01
-5.0000000000000000e-01 5.0000000000000000e-01
ITEM: ATOMS id type radius mass x y z fx fy fz vx vy vz 
8275 4 0.001 6.72248e-05 0.223 0.12182 0 0 -0.000672248 0 -9.96686e-16 -0.06 0 
ITEM: TIMESTEP
800
ITEM: NUMBER OF ATOMS
1
ITEM: BOX BOUNDS pp ff pp
0.0000000000000000e+00 1.5000000000000000e+00
0.0000000000000000e+00 4.5000000000000001e-01
-5.0000000000000000e-01 5.0000000000000000e-01
ITEM: ATOMS id type radius mass x y z fx fy fz vx vy vz 
8275 4 0.001 6.72248e-05 0.223 0.12168 0 0 -0.000672248 0 -1.32892e-15 -0.08 0 
ITEM: TIMESTEP
1000
ITEM: NUMBER OF ATOMS
1
ITEM: BOX BOUNDS pp ff pp
0.0000000000000000e+00 1.5000000000000000e+00
0.0000000000000000e+00 4.5000000000000001e-01
-5.0000000000000000e-01 5.0000000000000000e-01
ITEM: ATOMS id type radius mass x y z fx fy fz vx vy vz 
8275 4 0.001 6.72248e-05 0.223 0.1215 0 0 -0.000672248 0 -1.66114e-15 -0.1 0 
ITEM: TIMESTEP
1200
ITEM: NUMBER OF ATOMS
1
ITEM: BOX BOUNDS pp ff pp
0.0000000000000000e+00 1.5000000000000000e+00
0.0000000000000000e+00 4.5000000000000001e-01
-5.0000000000000000e-01 5.0000000000000000e-01
ITEM: ATOMS id type radius mass x y z fx fy fz vx vy vz 
8275 4 0.001 6.72248e-05 0.223 0.12128 0 0 -0.000672248 0 -1.99338e-15 -0.12 0 
ITEM: TIMESTEP
1400
ITEM: NUMBER OF ATOMS
1
ITEM: BOX BOUNDS pp ff pp
0.0000000000000000e+00 1.5000000000000000e+00
0.0000000000000000e+00 4.5000000000000001e-01
-5.0000000000000000e-01 5.0000000000000000e-01
ITEM: ATOMS id type radius mass x y z fx fy fz vx vy vz 
8275 4 0.001 6.72248e-05 0.223 0.12102 0 0 -0.000672248 0 -2.32564e-15 -0.14 0 
ITEM: TIMESTEP
1600
ITEM: NUMBER OF ATOMS
1
ITEM: BOX BOUNDS pp ff pp
0.0000000000000000e+00 1.5000000000000000e+00
0.0000000000000000e+00 4.5000000000000001e-01
-5.0000000000000000e-01 5.0000000000000000e-01
ITEM: ATOMS id type radius mass x y z fx fy fz vx vy vz 
8275 4 0.001 6.72248e-05 0.223 0.12072 0 0 -0.000672248 0 -2.65789e-15 -0.16 0 
ITEM: TIMESTEP
1800
ITEM: NUMBER OF ATOMS
1
ITEM: BOX BOUNDS pp ff pp
0.0000000000000000e+00 1.5000000000000000e+00
0.0000000000000000e+00 4.5000000000000001e-01
-5.0000000000000000e-01 5.0000000000000000e-01
ITEM: ATOMS id type radius mass x y z fx fy fz vx vy vz 
8275 4 0.001 6.72248e-05 0.223 0.12038 0 0 -0.000672248 0 -2.99011e-15 -0.18 0 
ITEM: TIMESTEP
2000
ITEM: NUMBER OF ATOMS
1
ITEM: BOX BOUNDS pp ff pp
0.0000000000000000e+00 1.5000000000000000e+00
0.0000000000000000e+00 4.5000000000000001e-01
-5.0000000000000000e-01 5.0000000000000000e-01
ITEM: ATOMS id type radius mass x y z fx fy fz vx vy vz 
8275 4 0.001 6.72248e-05 0.223 0.12 0 0 -0.000672248 0 -3.32234e-15 -0.2 0 
ITEM: TIMESTEP
2200
ITEM: NUMBER OF ATOMS
1
ITEM: BOX BOUNDS pp ff pp
0.0000000000000000e+00 1.5000000000000000e+00
0.0000000000000000e+00 4.5000000000000001e-01
-5.0000000000000000e-01 5.0000000000000000e-01
ITEM: ATOMS id type radius mass x y z fx fy fz vx vy vz 
8275 4 0.001 6.72248e-05 0.223 0.11958 0 0 -0.000672248 0 -3.65457e-15 -0.22 0 
ITEM: TIMESTEP
2400
ITEM: NUMBER OF ATOMS
1
ITEM: BOX BOUNDS pp ff pp
0.0000000000000000e+00 1.5000000000000000e+00
0.0000000000000000e+00 4.5000000000000001e-01
-5.0000000000000000e-01 5.0000000000000000e-01
ITEM: ATOMS id type radius mass x y z fx fy fz vx vy vz 
8275 4 0.001 6.72248e-05 0.223 0.11912 0 0 -0.000672248 0 -3.98679e-15 -0.24 0 
ITEM: TIMESTEP
2600
ITEM: NUMBER OF ATOMS
1
ITEM: BOX BOUNDS pp ff pp
0.0000000000000000e+00 1.5000000000000000e+00
0.0000000000000000e+00 4.5000000000000001e-01
-5.0000000000000000e-01 5.0000000000000000e-01
ITEM: ATOMS id type radius mass x y z fx fy fz vx vy vz 
8275 4 0.001 6.72248e-05 0.223 0.11862 0 0 -0.000672248 0 -4.31902e-15 -0.26 0 
ITEM: TIMESTEP
2800
ITEM: NUMBER OF ATOMS
1
ITEM: BOX BOUNDS pp ff pp
0.0000000000000000e+00 1.5000000000000000e+00
0.0000000000000000e+00 4.5000000000000001e-01
-5.0000000000000000e-01 5.0000000000000000e-01
ITEM: ATOMS id type radius mass x y z fx fy fz vx vy vz 
8275 4 0.001 6.72248e-05 0.223 0.11808 0 0 -0.000672248 0 -4.65125e-15 -0.28 0 
ITEM: TIMESTEP
3000
ITEM: NUMBER OF ATOMS
1
ITEM: BOX BOUNDS pp ff pp
0.0000000000000000e+00 1.5000000000000000e+00
0.0000000000000000e+00 4.5000000000000001e-01
-5.0000000000000000e-01 5.0000000000000000e-01
ITEM: ATOMS id type radius mass x y z fx fy fz vx vy vz 
8275 4 0.001 6.72248e-05 0.223 0.1175 0 0 -0.000672248 0 -4.98348e-15 -0.3 0 
ITEM: TIMESTEP
3200
ITEM: NUMBER OF ATOMS
1
ITEM: BOX BOUNDS pp ff pp
0.0000000000000000e+00 1.5000000000000000e+00
0.0000000000000000e+00 4.5000000000000001e-01
-5.0000000000000000e-01 5.0000000000000000e-01
ITEM: ATOMS id type radius mass x y z fx fy fz vx vy vz 
8275 4 0.001 6.72248e-05 0.223 0.11688 0 0 -0.000672248 0 -5.31571e-15 -0.32 0 
ITEM: TIMESTEP
3400
ITEM: NUMBER OF ATOMS
1
ITEM: BOX BOUNDS pp ff pp
0.0000000000000000e+00 1.5000000000000000e+00
0.0000000000000000e+00 4.5000000000000001e-01
-5.0000000000000000e-01 5.0000000000000000e-01
ITEM: ATOMS id type radius mass x y z fx fy fz vx vy vz 
8275 4 0.001 6.72248e-05 0.223 0.11622 0 0 -0.000672248 0 -5.64794e-15 -0.34 0 
ITEM: TIMESTEP
3600
ITEM: NUMBER OF ATOMS
1
ITEM: BOX BOUNDS pp ff pp
0.0000000000000000e+00 1.5000000000000000e+00
0.0000000000000000e+00 4.5000000000000001e-01
-5.0000000000000000e-01 5.0000000000000000e-01
ITEM: ATOMS id type radius mass x y z fx fy fz vx vy vz 
8275 4 0.001 6.72248e-05 0.223 0.11552 0 0 -0.000672248 0 -5.98016e-15 -0.36 0 
ITEM: TIMESTEP
3800
ITEM: NUMBER OF ATOMS
1
ITEM: BOX BOUNDS pp ff pp
0.0000000000000000e+00 1.5000000000000000e+00
0.0000000000000000e+00 4.5000000000000001e-01
-5.0000000000000000e-01 5.0000000000000000e-01
ITEM: ATOMS id type radius mass x y z fx fy fz vx vy vz 
8275 4 0.001 6.72248e-05 0.223 0.11478 0 0 -0.000672248 0 -6.3124e-15 -0.38 0 
ITEM: TIMESTEP
4000
ITEM: NUMBER OF ATOMS
1
ITEM: BOX BOUNDS pp ff pp
0.0000000000000000e+00 1.5000000000000000e+00
0.0000000000000000e+00 4.5000000000000001e-01
-5.0000000000000000e-01 5.0000000000000000e-01
ITEM: ATOMS id type radius mass x y z fx fy fz vx vy vz 
8275 4 0.001 6.72248e-05 0.223 0.114 0 0 -0.000672248 0 -6.64462e-15 -0.4 0 
ITEM: TIMESTEP
4200
ITEM: NUMBER OF ATOMS
1
ITEM: BOX BOUNDS pp ff pp
0.0000000000000000e+00 1.5000000000000000e+00
0.0000000000000000e+00 4.5000000000000001e-01
-5.0000000000000000e-01 5.0000000000000000e-01
ITEM: ATOMS id type radius mass x y z fx fy fz vx vy vz 
8275 4 0.001 6.72248e-05 0.223 0.11318 0 0 -0.000672248 0 -6.97687e-15 -0.42 0 
ITEM: TIMESTEP
4400
ITEM: NUMBER OF ATOMS
1
ITEM: BOX BOUNDS pp ff pp
0.0000000000000000e+00 1.5000000000000000e+00
0.0000000000000000e+00 4.5000000000000001e-01
-5.0000000000000000e-01 5.0000000000000000e-01
ITEM: ATOMS id type radius mass x y z fx fy fz vx vy vz 
8275 4 0.001 6.72248e-05 0.223 0.11232 0 0 -0.000672248 0 -7.3091e-15 -0.44 0 
ITEM: TIMESTEP
4600
ITEM: NUMBER OF ATOMS
1
ITEM: BOX BOUNDS pp ff pp
0.0000000000000000e+00 1.5000000000000000e+00
0.0000000000000000e+00 4.5000000000000001e-01
-5.0000000000000000e-01 5.0000000000000000e-01
ITEM: ATOMS id type radius mass x y z fx fy fz vx vy vz 
8275 4 0.001 6.72248e-05 0.223 0.11142 0 0 -0.000672248 0 -7.64134e-15 -0.46 0 
ITEM: TIMESTEP
4800
ITEM: NUMBER OF ATOMS
1
ITEM: BOX BOUNDS pp ff pp
0.0000000000000000e+00 1.5000000000000000e+00
0.0000000000000000e+00 4.5000000000000001e-01
-5.0000000000000000e-01 5.0000000000000000e-01
ITEM: ATOMS id type radius mass x y z fx fy fz vx vy vz 
8275 4 0.001 6.72248e-05 0.223 0.11048 0 0 -0.000672248 0 -7.97356e-15 -0.48 0 
ITEM: TIMESTEP
5000
ITEM: NUMBER OF ATOMS
1
ITEM: BOX BOUNDS pp ff pp
0.0000000000000000e+00 1.5000000000000000e+00
0.0000000000000000e+00 4.5000000000000001e-01
-5.0000000000000000e-01 5.0000000000000000e-01
ITEM: ATOMS id type radius mass x y z fx fy fz vx vy vz 
8275 4 0.001 6.72248e-05 0.223 0.1095 0 0 -0.000672248 0 -8.30579e-15 -0.5 0 
ITEM: TIMESTEP
5200
ITEM: NUMBER OF ATOMS
1
ITEM: BOX BOUNDS pp ff pp
0.0000000000000000e+00 1.5000000000000000e+00
0.0000000000000000e+00 4.5000000000000001e-01
-5.0000000000000000e-01 5.0000000000000000e-01
ITEM: ATOMS id type radius mass x y z fx fy fz vx vy vz 
8275 4 0.001 6.72248e-05 0.223 0.10848 0 0 -0.000672248 0 -8.63805e-15 -0.52 0 
ITEM: TIMESTEP
5400
ITEM: NUMBER OF ATOMS
1
ITEM: BOX BOUNDS pp ff pp
0.0000000000000000e+00 1.5000000000000000e+00
0.0000000000000000e+00 4.5000000000000001e-01
-5.0000000000000000e-01 5.0000000000000000e-01
ITEM: ATOMS id type radius mass x y z fx fy fz vx vy vz 
8275 4 0.001 6.72248e-05 0.223 0.10742 0 0 -0.000672248 0 -8.9703e-15 -0.54 0 
ITEM: TIMESTEP
5600
ITEM: NUMBER OF ATOMS
1
ITEM: BOX BOUNDS pp ff pp
0.0000000000000000e+00 1.5000000000000000e+00
0.0000000000000000e+00 4.5000000000000001e-01
-5.0000000000000000e-01 5.0000000000000000e-01
ITEM: ATOMS id type radius mass x y z fx fy fz vx vy vz 
8275 4 0.001 6.72248e-05 0.223 0.10632 0 0 -0.000672248 0 -9.30254e-15 -0.56 0 
ITEM: TIMESTEP
5800
ITEM: NUMBER OF ATOMS
1
ITEM: BOX BOUNDS pp ff pp
0.0000000000000000e+00 1.5000000000000000e+00
0.0000000000000000e+00 4.5000000000000001e-01
-5.0000000000000000e-01 5.0000000000000000e-01
ITEM: ATOMS id type radius mass x y z fx fy fz vx vy vz 
8275 4 0.001 6.72248e-05 0.223 0.10518 0 0 -0.000672248 0 -9.63479e-15 -0.58 0 
ITEM: TIMESTEP
6000
ITEM: NUMBER OF ATOMS
1
ITEM: BOX BOUNDS pp ff pp
0.0000000000000000e+00 1.5000000000000000e+00
0.0000000000000000e+00 4.5000000000000001e-01
-5.0000000000000000e-01 5.0000000000000000e-01
ITEM: ATOMS id type radius mass x y z fx fy fz vx vy vz 
8275 4 0.001 6.72248e-05 0.223 0.104 0 0 -0.000672248 0 -9.96705e-15 -0.6 0 
ITEM: TIMESTEP
6200
ITEM: NUMBER OF ATOMS
1
ITEM: BOX BOUNDS pp ff pp
0.0000000000000000e+00 1.5000000000000000e+00
0.0000000000000000e+00 4.5000000000000001e-01
-5.0000000000000000e-01 5.0000000000000000e-01
ITEM: ATOMS id type radius mass x y z fx fy fz vx vy vz 
8275 4 0.001 6.72248e-05 0.223 0.10278 0 0 -0.000672248 0 -1.02993e-14 -0.62 0 
ITEM: TIMESTEP
6400
ITEM: NUMBER OF ATOMS
1
ITEM: BOX BOUNDS pp ff pp
0.0000000000000000e+00 1.5000000000000000e+00
0.0000000000000000e+00 4.5000000000000001e-01
-5.0000000000000000e-01 5.0000000000000000e-01
ITEM: ATOMS id type radius mass x y z fx fy fz vx vy vz 
8275 4 0.001 6.72248e-05 0.223 0.10152 0 0 -0.000672248 0 -1.06315e-14 -0.64 0 
ITEM: TIMESTEP
6600
ITEM: NUMBER OF ATOMS
1
ITEM: BOX BOUNDS pp ff pp
0.0000000000000000e+00 1.5000000000000000e+00
0.0000000000000000e+00 4.5000000000000001e-01
-5.0000000000000000e-01 5.0000000000000000e-01
ITEM: ATOMS id type radius mass x y z fx fy fz vx vy vz 
8275 4 0.001 6.72248e-05 0.223 0.10022 0 0 -0.000672248 0 -1.09638e-14 -0.66 0 
ITEM: TIMESTEP
6800
ITEM: NUMBER OF ATOMS
1
ITEM: BOX BOUNDS pp ff pp
0.0000000000000000e+00 1.5000000000000000e+00
0.0000000000000000e+00 4.5000000000000001e-01
-5.0000000000000000e-01 5.0000000000000000e-01
ITEM: ATOMS id type radius mass x y z fx fy fz vx vy vz 
8275 4 0.001 6.72248e-05 0.223 0.09888 0 0 -0.000672248 0 -1.1296e-14 -0.68 0 
ITEM: TIMESTEP
7000
ITEM: NUMBER OF ATOMS
1
ITEM: BOX BOUNDS pp ff pp
0.0000000000000000e+00 1.5000000000000000e+00
0.0000000000000000e+00 4.5000000000000001e-01
-5.0000000000000000e-01 5.0000000000000000e-01
ITEM: ATOMS id type radius mass x y z fx fy fz vx vy vz 
8275 4 0.001 6.72248e-05 0.223 0.0975 0 0 -0.000672248 0 -1.16282e-14 -0.7 0 
ITEM: TIMESTEP
7200
ITEM: NUMBER OF ATOMS
1
ITEM: BOX BOUNDS pp ff pp
0.0000000000000000e+00 1.5000000000000000e+00
0.0000000000000000e+00 4.5000000000000001e-01
-5.0000000000000000e-01 5.0000000000000000e-01
ITEM: ATOMS id type radius mass x y z fx fy fz vx vy vz 
8275 4 0.001 6.72248e-05 0.223 0.09608 0 0 -0.000672248 0 -1.19605e-14 -0.72 0 
ITEM: TIMESTEP
7400
ITEM: NUMBER OF ATOMS
1
ITEM: BOX BOUNDS pp ff pp
0.0000000000000000e+00 1.5000000000000000e+00
0.0000000000000000e+00 4.5000000000000001e-01
-5.0000000000000000e-01 5.0000000000000000e-01
ITEM: ATOMS id type radius mass x y z fx fy fz vx vy vz 
8275 4 0.001 6.72248e-05 0.223 0.09462 0 0 -0.000672248 0 -1.22927e-14 -0.74 0 
ITEM: TIMESTEP
7600
ITEM: NUMBER OF ATOMS
1
ITEM: BOX BOUNDS pp ff pp
0.0000000000000000e+00 1.5000000000000000e+00
0.0000000000000000e+00 4.5000000000000001e-01
-5.0000000000000000e-01 5.0000000000000000e-01
ITEM: ATOMS id type radius mass x y z fx fy fz vx vy vz 
8275 4 0.001 6.72248e-05 0.222994 0.0931739 0 0 -0.000672248 0 0.000324437 -0.704349 0 
ITEM: TIMESTEP
7800
ITEM: NUMBER OF ATOMS
1
ITEM: BOX BOUNDS pp ff pp
0.0000000000000000e+00 1.5000000000000000e+00
0.0000000000000000e+00 4.5000000000000001e-01
-5.0000000000000000e-01 5.0000000000000000e-01
ITEM: ATOMS id type radius mass x y z fx fy fz vx vy vz 
8275 4 0.001 6.72248e-05 0.22301 0.0919122 0 0 -0.000672248 0 0.00632974 -0.548436 0 
ITEM: TIMESTEP
8000
ITEM: NUMBER OF ATOMS
1
ITEM: BOX BOUNDS pp ff pp
0.0000000000000000e+00 1.5000000000000000e+00
0.0000000000000000e+00 4.5000000000000001e-01
-5.0000000000000000e-01 5.0000000000000000e-01
ITEM: ATOMS id type radius mass x y z fx fy fz vx vy vz 
8275 4 0.001 6.72248e-05 0.223028 0.0909994 0 0 -0.000672248 0 0.00493559 -0.360357 0 
ITEM: TIMESTEP
8200
ITEM: NUMBER OF ATOMS
1
ITEM: BOX BOUNDS pp ff pp
0.0000000000000000e+00 1.5000000000000000e+00
0.0000000000000000e+00 4.5000000000000001e-01
-5.0000000000000000e-01 5.0000000000000000e-01
ITEM: ATOMS id type radius mass x y z fx fy fz vx vy vz 
8275 4 0.001 6.72248e-05 0.223035 0.0904129 0 0 -0.000672248 0 0.00485097 -0.243025 0 
ITEM: TIMESTEP
8400
ITEM: NUMBER OF ATOMS
1
ITEM: BOX BOUNDS pp ff pp
0.0000000000000000e+00 1.5000000000000000e+00
0.0000000000000000e+00 4.5000000000000001e-01
-5.0000000000000000e-01 5.0000000000000000e-01
ITEM: ATOMS id type radius mass x y z fx fy fz vx vy vz 
8275 4 0.001 6.72248e-05 0.223045 0.0900071 0 0 -0.000672248 0 0.00270063 -0.162465 0 
ITEM: TIMESTEP
8600
ITEM: NUMBER OF ATOMS
1
ITEM: BOX BOUNDS pp ff pp
0.0000000000000000e+00 1.5000000000000000e+00
0.0000000000000000e+00 4.5000000000000001e-01
-5.0000000000000000e-01 5.0000000000000000e-01
ITEM: ATOMS id type radius mass x y z fx fy fz vx vy vz 
8275 4 0.001 6.72248e-05 0.223057 0.0897378 0 0 -0.000672248 0 0.00879637 -0.112896 0 
ITEM: TIMESTEP
8800
ITEM: NUMBER OF ATOMS
1
ITEM: BOX BOUNDS pp ff pp
0.0000000000000000e+00 1.5000000000000000e+00
0.0000000000000000e+00 4.5000000000000001e-01
-5.0000000000000000e-01 5.0000000000000000e-01
ITEM: ATOMS id type radius mass x y z fx fy fz vx vy vz 
8275 4 0.001 6.72248e-05 0.223073 0.0895446 0 0 -0.000672248 0 0.0090279 -0.079278 0 
ITEM: TIMESTEP
9000
ITEM: NUMBER OF ATOMS
1
ITEM: BOX BOUNDS pp ff pp
0.0000000000000000e+00 1.5000000000000000e+00
0.0000000000000000e+00 4.5000000000000001e-01
-5.0000000000000000e-01 5.0000000000000000e-01
ITEM: ATOMS id type radius mass x y z fx fy fz vx vy vz 
8275 4 0.001 6.72248e-05 0.22309 0.0894121 0 0 -0.000672248 0 0.004952 -0.0557493 0 
ITEM: TIMESTEP
9200
ITEM: NUMBER OF ATOMS
1
ITEM: BOX BOUNDS pp ff pp
0.0000000000000000e+00 1.5000000000000000e+00
0.0000000000000000e+00 4.5000000000000001e-01
-5.0000000000000000e-01 5.0000000000000000e-01
ITEM: ATOMS id type radius mass x y z fx fy fz vx vy vz 
8275 4 0.001 6.72248e-05 0.223093 0.0893249 0 0 -0.000672248 0 0.00010767 -0.033206 0 
ITEM: TIMESTEP
9400
ITEM: NUMBER OF ATOMS
1
ITEM: BOX BOUNDS pp ff pp
0.0000000000000000e+00 1.5000000000000000e+00
0.0000000000000000e+00 4.5000000000000001e-01
-5.0000000000000000e-01 5.0000000000000000e-01
ITEM: ATOMS id type radius mass x y z fx fy fz vx vy vz 
8275 4 0.001 6.72248e-05 0.223095 0.0892681 0 0 -0.000672248 0 0.00191759 -0.0239234 0 
ITEM: TIMESTEP
9600
ITEM: NUMBER OF ATOMS
1
ITEM: BOX BOUNDS pp ff pp
0.0000000000000000e+00 1.5000000000000000e+00
0.0000000000000000e+00 4.5000000000000001e-01
-5.0000000000000000e-01 5.0000000000000000e-01
ITEM: ATOMS id type radius mass x y z fx fy fz vx vy vz 
8275 4 0.001 6.72248e-05 0.2231 0.0892265 0 0 -0.000672248 0 0.00219635 -0.018447 0 
ITEM: TIMESTEP
9800
ITEM: NUMBER OF ATOMS
1
ITEM: BOX BOUNDS pp ff pp
0.0000000000000000e+00 1.5000000000000000e+00
0.0000000000000000e+00 4.5000000000000001e-01
-5.0000000000000000e-01 5.0000000000000000e-01
ITEM: ATOMS id type radius mass x y z fx fy fz vx vy vz 
8275 4 0.001 6.72248e-05 0.223102 0.0891913 0 0 -0.000672248 0 0.00119325 -0.0162418 0 
ITEM: TIMESTEP
10000
ITEM: NUMBER OF ATOMS
1
ITEM: BOX BOUNDS pp ff pp
0.0000000000000000e+00 1.5000000000000000e+00
0.0000000000000000e+00 4.5000000000000001e-01
-5.0000000000000000e-01 5.0000000000000000e-01
ITEM: ATOMS id type radius mass x y z fx fy fz vx vy vz 
8275 4 0.001 6.72248e-05 0.223107 0.0891602 0 0 -0.000672248 0 0.00288161 -0.0156405 0 
ITEM: TIMESTEP
10200
ITEM: NUMBER OF ATOMS
1
ITEM: BOX BOUNDS pp ff pp
0.0000000000000000e+00 1.5000000000000000e+00
0.0000000000000000e+00 4.5000000000000001e-01
-5.0000000000000000e-01 5.0000000000000000e-01
ITEM: ATOMS id type radius mass x y z fx fy fz vx vy vz 
8275 4 0.001 6.72248e-05 0.223112 0.0891281 0 0 -0.000672248 0 0.00268971 -0.0161515 0 
ITEM: TIMESTEP
10400
ITEM: NUMBER OF ATOMS
1
ITEM: BOX BOUNDS pp ff pp
0.0000000000000000e+00 1.5000000000000000e+00
0.0000000000000000e+00 4.5000000000000001e-01
-5.0000000000000000e-01 5.0000000000000000e-01
ITEM: ATOMS id type radius mass x y z fx fy fz vx vy vz 
8275 4 0.001 6.72248e-05 0.223116 0.089096 0 0 -0.000672248 0 0.0012269 -0.0154882 0 
ITEM: TIMESTEP
10600
ITEM: NUMBER OF ATOMS
1
ITEM: BOX BOUNDS pp ff pp
0.0000000000000000e+00 1.5000000000000000e+00
0.0000000000000000e+00 4.5000000000000001e-01
-5.0000000000000000e-01 5.0000000000000000e-01
ITEM: ATOMS id type radius mass x y z fx fy fz vx vy vz 
8275 4 0.001 6.72248e-05 0.223119 0.089067 0 0 -0.000672248 0 0.00161829 -0.013624 0 
ITEM: TIMESTEP
10800
ITEM: NUMBER OF ATOMS
1
ITEM: BOX BOUNDS pp ff pp
0.0000000000000000e+00 1.5000000000000000e+00
0.0000000000000000e+00 4.5000000000000001e-01
-5.0000000000000000e-01 5.0000000000000000e-01
ITEM: ATOMS id type radius mass x y z fx fy fz vx vy vz 
8275 4 0.001 6.72248e-05 0.223123 0.0890392 0 0 -0.000672248 0 0.00308788 -0.0145253 0 
ITEM: TIMESTEP
11000
ITEM: NUMBER OF ATOMS
1
ITEM: BOX BOUNDS pp ff pp
0.0000000000000000e+00 1.5000000000000000e+00
0.0000000000000000e+00 4.5000000000000001e-01
-5.0000000000000000e-01 5.0000000000000000e-01
ITEM: ATOMS id type radius mass x y z fx fy fz vx vy vz 
8275 4 0.001 6.72248e-05 0.223131 0.0890097 0 0 -0.000672248 0 0.00368676 -0.0145694 0 
ITEM: TIMESTEP
11200
ITEM: NUMBER OF ATOMS
1
ITEM: BOX BOUNDS pp ff pp
0.0000000000000000e+00 1.5000000000000000e+00
0.0000000000000000e+00 4.5000000000000001e-01
-5.0000000000000000e-01 5.0000000000000000e-01
ITEM: ATOMS id type radius mass x y z fx fy fz vx vy vz 
8275 4 0.001 6.72248e-05 0.223136 0.0889823 0 0 -0.000672248 0 0.000855086 -0.0116175 0 
ITEM: TIMESTEP
11400
ITEM: NUMBER OF ATOMS
1
ITEM: BOX BOUNDS pp ff pp
0.0000000000000000e+00 1.5000000000000000e+00
0.0000000000000000e+00 4.5000000000000001e-01
-5.0000000000000000e-01 5.0000000000000000e-01
ITEM: ATOMS id type radius mass x y z fx fy fz vx vy vz 
8275 4 0.001 6.72248e-05 0.223135 0.0889609 0 0 -0.000672248 0 -0.00215234 -0.0105085 0 
ITEM: TIMESTEP
11600
ITEM: NUMBER OF ATOMS
1
ITEM: BOX BOUNDS pp ff pp
0.0000000000000000e+00 1.5000000000000000e+00
0.0000000000000000e+00 4.5000000000000001e-01
-5.0000000000000000e-01 5.0000000000000000e-01
ITEM: ATOMS id type radius mass x y z fx fy fz vx vy vz 
8275 4 0.001 6.72248e-05 0.223128 0.0889384 0 0 -0.000672248 0 -0.00417452 -0.0125419 0 
ITEM: TIMESTEP
11800
ITEM: NUMBER OF ATOMS
1
ITEM: BOX BOUNDS pp ff pp
0.0000000000000000e+00 1.5000000000000000e+00
0.0000000000000000e+00 4.5000000000000001e-01
-5.0000000000000000e-01 5.0000000000000000e-01
ITEM: ATOMS id type radius mass x y z fx fy fz vx vy vz 
8275 4 0.001 6.72248e-05 0.223119 0.0889096 0 0 -0.000672248 0 -0.00450582 -0.0161713 0 
ITEM: TIMESTEP
12000
ITEM: NUMBER OF ATOMS
1
ITEM: BOX BOUNDS pp ff pp
0.0000000000000000e+00 1.5000000000000000e+00
0.0000000000000000e+00 4.5000000000000001e-01
-5.0000000000000000e-01 5.0000000000000000e-01
ITEM: ATOMS id type radius mass x y z fx fy fz vx vy vz 
8275 4 0.001 6.72248e-05 0.223111 0.0888752 0 0 -0.000672248 0 -0.00346515 -0.0172021 0 
ITEM: TIMESTEP
12200
ITEM: NUMBER OF ATOMS
1
ITEM: BOX BOUNDS pp ff pp
0.0000000000000000e+00 1.5000000000000000e+00
0.0000000000000000e+00 4.5000000000000001e-01
-5.0000000000000000e-01 5.0000000000000000e-01
ITEM: ATOMS id type radius mass x y z fx fy fz vx vy vz 
8275 4 0.001 6.72248e-05 0.223104 0.0888457 0 0 -0.000672248 0 -0.0034272 -0.0114197 0 
ITEM: TIMESTEP
12400
ITEM: NUMBER OF ATOMS
1
ITEM: BOX BOUNDS pp ff pp
0.0000000000000000e+00 1.5000000000000000e+00
0.0000000000000000e+00 4.5000000000000001e-01
-5.0000000000000000e-01 5.0000000000000000e-01
ITEM: ATOMS id type radius mass x y z fx fy fz vx vy vz 
8275 4 0.001 6.72248e-05 0.223098 0.0888347 0 0 -0.000672248 0 -0.00175808 0.00169232 0 
ITEM: TIMESTEP
12600
ITEM: NUMBER OF ATOMS
1
ITEM: BOX BOUNDS pp ff pp
0.0000000000000000e+00 1.5000000000000000e+00
0.0000000000000000e+00 4.5000000000000001e-01
-5.0000000000000000e-01 5.0000000000000000e-01
ITEM: ATOMS id type radius mass x y z fx fy fz vx vy vz 
8275 4 0.001 6.72248e-05 0.223096 0.0888559 0 0 -0.000672248 0 -0.000515164 0.0195663 0 
ITEM: TIMESTEP
12800
ITEM: NUMBER OF ATOMS
1
ITEM: BOX BOUNDS pp ff pp
0.0000000000000000e+00 1.5000000000000000e+00
0.0000000000000000e+00 4.5000000000000001e-01
-5.0000000000000000e-01 5.0000000000000000e-01
ITEM: ATOMS id type radius mass x y z fx fy fz vx vy vz 
8275 4 0.001 6.72248e-05 0.223095 0.0889185 0 0 -0.000672248 0 -0.000507708 0.0442244 0 
ITEM: TIMESTEP
13000
ITEM: NUMBER OF ATOMS
1
ITEM: BOX BOUNDS pp ff pp
0.0000000000000000e+00 1.5000000000000000e+00
0.0000000000000000e+00 4.5000000000000001e-01
-5.0000000000000000e-01 5.0000000000000000e-01
ITEM: ATOMS id type radius mass x y z fx fy fz vx vy vz 
8275 4 0.001 6.72248e-05 0.223094 0.0890325 0 0 -0.000672248 0 0.000508355 0.0692501 0 
ITEM: TIMESTEP
13200
ITEM: NUMBER OF ATOMS
1
ITEM: BOX BOUNDS pp ff pp
0.0000000000000000e+00 1.5000000000000000e+00
0.0000000000000000e+00 4.5000000000000001e-01
-5.0000000000000000e-01 5.0000000000000000e-01
ITEM: ATOMS id type radius mass x y z fx fy fz vx vy vz 
8275 4 0.001 6.72248e-05 0.223097 0.0891922 0 0 -0.000672248 0 0.00156342 0.0890628 0 
ITEM: TIMESTEP
13400
ITEM: NUMBER OF ATOMS
1
ITEM: BOX BOUNDS pp ff pp
0.0000000000000000e+00 1.5000000000000000e+00
0.0000000000000000e+00 4.5000000000000001e-01
-5.0000000000000000e-01 5.0000000000000000e-01
ITEM: ATOMS id type radius mass x y z fx fy fz vx vy vz 
8275 4 0.001 6.72248e-05 0.2231 0.0893846 0 0 -0.000672248 0 0.00248281 0.102236 0 
ITEM: TIMESTEP
13600
ITEM: NUMBER OF ATOMS
1
ITEM: BOX BOUNDS pp ff pp
0.0000000000000000e+00 1.5000000000000000e+00
0.0000000000000000e+00 4.5000000000000001e-01
-5.0000000000000000e-01 5.0000000000000000e-01
ITEM: ATOMS id type radius mass x y z fx fy fz vx vy vz 
8275 4 0.001 6.72248e-05 0.223106 0.089597 0 0 -0.000672248 0 0.00316676 0.109117 0 
ITEM: TIMESTEP
13800
ITEM: NUMBER OF ATOMS
1
ITEM: BOX BOUNDS pp ff pp
0.0000000000000000e+00 1.5000000000000000e+00
0.0000000000000000e+00 4.5000000000000001e-01
-5.0000000000000000e-01 5.0000000000000000e-01
ITEM: ATOMS id type radius mass x y z fx fy fz vx vy vz 
8275 4 0.001 6.72248e-05 0.223113 0.0898173 0 0 -0.000672248 0 0.00321022 0.11034 0 
ITEM: TIMESTEP
14000
ITEM: NUMBER OF ATOMS
1
ITEM: BOX BOUNDS pp ff pp
0.0000000000000000e+00 1.5000000000000000e+00
0.0000000000000000e+00 4.5000000000000001e-01
-5.0000000000000000e-01 5.0000000000000000e-01
ITEM: ATOMS id type radius mass x y z fx fy fz vx vy vz 
8275 4 0.001 6.72248e-05 0.223119 0.0900347 0 0 -0.000672248 0 0.00331902 0.106184 0 
ITEM: TIMESTEP
14200
ITEM: NUMBER OF ATOMS
1
ITEM: BOX BOUNDS pp ff pp
0.0000000000000000e+00 1.5000000000000000e+00
0.0000000000000000e+00 4.5000000000000001e-01
-5.0000000000000000e-01 5.0000000000000000e-01
ITEM: ATOMS id type radius mass x y z fx fy fz vx vy vz 
8275 4 0.001 6.72248e-05 0.223126 0.0902396 0 0 -0.000672248 0 0.00305548 0.0981382 0 
ITEM: TIMESTEP
14400
ITEM: NUMBER OF ATOMS
1
ITEM: BOX BOUNDS pp ff pp
0.0000000000000000e+00 1.5000000000000000e+00
0.0000000000000000e+00 4.5000000000000001e-01
-5.0000000000000000e-01 5.0000000000000000e-01
ITEM: ATOMS id type radius mass x y z fx fy fz vx vy vz 
8275 4 0.001 6.72248e-05 0.223131 0.0904256 0 0 -0.000672248 0 0.00196998 0.0875789 0 
ITEM: TIMESTEP
14600
ITEM: NUMBER OF ATOMS
1
ITEM: BOX BOUNDS pp ff pp
0.0000000000000000e+00 1.5000000000000000e+00
0.0000000000000000e+00 4.5000000000000001e-01
-5.0000000000000000e-01 5.0000000000000000e-01
ITEM: ATOMS id type radius mass x y z fx fy fz vx vy vz 
8275 4 0.001 6.72248e-05 0.223134 0.090589 0 0 -0.000672248 0 0.00136049 0.0756905 0 
ITEM: TIMESTEP
14800
ITEM: NUMBER OF ATOMS
1
ITEM: BOX BOUNDS pp ff pp
0.0000000000000000e+00 1.5000000000000000e+00
0.0000000000000000e+00 4.5000000000000001e-01
-5.0000000000000000e-01 5.0000000000000000e-01
ITEM: ATOMS id type radius mass x y z fx fy fz vx vy vz 
8275 4 0.001 6.72248e-05 0.223137 0.090728 0 0 -0.000672248 0 0.00180564 0.0632113 0 
ITEM: TIMESTEP
15000
ITEM: NUMBER OF ATOMS
1
ITEM: BOX BOUNDS pp ff pp
0.0000000000000000e+00 1.5000000000000000e+00
0.0000000000000000e+00 4.5000000000000001e-01
-5.0000000000000000e-01 5.0000000000000000e-01
ITEM: ATOMS id type radius mass x y z fx fy fz vx vy vz 
8275 4 0.001 6.72248e-05 0.223142 0.0908417 0 0 -0.000672248 0 0.00263487 0.0505222 0 
ITEM: TIMESTEP
15200
ITEM: NUMBER OF ATOMS
1
ITEM: BOX BOUNDS pp ff pp
0.0000000000000000e+00 1.5000000000000000e+00
0.0000000000000000e+00 4.5000000000000001e-01
-5.0000000000000000e-01 5.0000000000000000e-01
ITEM: ATOMS id type radius mass x y z fx fy fz vx vy vz 
8275 4 0.001 6.72248e-05 0.223148 0.0909301 0 0 -0.000672248 0 0.00342456 0.038 0 
ITEM: TIMESTEP
15400
ITEM: NUMBER OF ATOMS
1
ITEM: BOX BOUNDS pp ff pp
0.0000000000000000e+00 1.5000000000000000e+00
0.0000000000000000e+00 4.5000000000000001e-01
-5.0000000000000000e-01 5.0000000000000000e-01
ITEM: ATOMS id type radius mass x y z fx fy fz vx vy vz 
8275 4 0.001 6.72248e-05 0.223155 0.0909942 0 0 -0.000672248 0 0.00356465 0.02626 0 
ITEM: TIMESTEP
15600
ITEM: NUMBER OF ATOMS
1
ITEM: BOX BOUNDS pp ff pp
0.0000000000000000e+00 1.5000000000000000e+00
0.0000000000000000e+00 4.5000000000000001e-01
-5.0000000000000000e-01 5.0000000000000000e-01
ITEM: ATOMS id type radius mass x y z fx fy fz vx vy vz 
8275 4 0.001 6.72248e-05 0.223162 0.0910358 0 0 -0.000672248 0 0.00379318 0.0156118 0 
ITEM: TIMESTEP
15800
ITEM: NUMBER OF ATOMS
1
ITEM: BOX BOUNDS pp ff pp
0.0000000000000000e+00 1.5000000000000000e+00
0.0000000000000000e+00 4.5000000000000001e-01
-5.0000000000000000e-01 5.0000000000000000e-01
ITEM: ATOMS id type radius mass x y z fx fy fz vx vy vz 
8275 4 0.001 6.72248e-05 0.22317 0.0910577 0 0 -0.000672248 0 0.00375934 0.00658203 0 
ITEM: TIMESTEP
16000
ITEM: NUMBER OF ATOMS
1
ITEM: BOX BOUNDS pp ff pp
0.0000000000000000e+00 1.5000000000000000e+00
0.0000000000000000e+00 4.5000000000000001e-01
-5.0000000000000000e-01 5.0000000000000000e-01
ITEM: ATOMS id type radius mass x y z fx fy fz vx vy vz 
8275 4 0.001 6.72248e-05 0.223176 0.0910629 0 0 -0.000672248 0 0.00279599 -0.00121535 0 
ITEM: TIMESTEP
16200
ITEM: NUMBER OF ATOMS
1
ITEM: BOX BOUNDS pp ff pp
0.0000000000000000e+00 1.5000000000000000e+00
0.0000000000000000e+00 4.5000000000000001e-01
-5.0000000000000000e-01 5.0000000000000000e-01
ITEM: ATOMS id type radius mass x y z fx fy fz vx vy vz 
8275 4 0.001 6.72248e-05 0.223181 0.0910533 0 0 -0.000672248 0 0.00140306 -0.00815207 0 
ITEM: TIMESTEP
16400
ITEM: NUMBER OF ATOMS
1
ITEM: BOX BOUNDS pp ff pp
0.0000000000000000e+00 1.5000000000000000e+00
0.0000000000000000e+00 4.5000000000000001e-01
-5.0000000000000000e-01 5.0000000000000000e-01
ITEM: ATOMS id type radius mass x y z fx fy fz vx vy vz 
8275 4 0.001 6.72248e-05 0.223182 0.0910314 0 0 -0.000672248 0 4.58801e-05 -0.0135321 0 
ITEM: TIMESTEP
16600
ITEM: NUMBER OF ATOMS
1
ITEM: BOX BOUNDS pp ff pp
0.0000000000000000e+00 1.5000000000000000e+00
0.0000000000000000e+00 4.5000000000000001e-01
-5.0000000000000000e-01 5.0000000000000000e-01
ITEM: ATOMS id type radius mass x y z fx fy fz vx vy vz 
8275 4 0.001 6.72248e-05 0.223182 0.0909996 0 0 -0.000672248 0 -0.000205124 -0.0182165 0 
ITEM: TIMESTEP
16800
ITEM: NUMBER OF ATOMS
1
ITEM: BOX BOUNDS pp ff pp
0.0000000000000000e+00 1.5000000000000000e+00
0.0000000000000000e+00 4.5000000000000001e-01
-5.0000000000000000e-01 5.0000000000000000e-01
ITEM: ATOMS id type radius mass x y z fx fy fz vx vy vz 
8275 4 0.001 6.72248e-05 0.223181 0.0909587 0 0 -0.000672248 0 -0.000147192 -0.0226906 0 
ITEM: TIMESTEP
17000
ITEM: NUMBER OF ATOMS
1
ITEM: BOX BOUNDS pp ff pp
0.0000000000000000e+00 1.5000000000000000e+00
0.0000000000000000e+00 4.5000000000000001e-01
-5.0000000000000000e-01 5.0000000000000000e-01