ITEM: TIMESTEP
0
ITEM: NUMBER OF ATOMS
1
ITEM: BOX BOUNDS pp ff pp
0.0000000000000000e+00 1.5000000000000000e+00
0.0000000000000000e+00 4.5000000000000001e-01
-5.0000000000000000e-01 5.0000000000000000e-01
ITEM: ATOMS id type radius mass x y z fx fy fz vx vy vz 
12405 5 0.005 5.23599e-07 0.474232 0.0902405 0 -0.00266815 -0.0673118 0 -0.0254789 -0.642781 0 
ITEM: TIMESTEP
20
ITEM: NUMBER OF ATOMS
1
ITEM: BOX BOUNDS pp ff pp
0.0000000000000000e+00 1.5000000000000000e+00
0.0000000000000000e+00 4.5000000000000001e-01
-5.0000000000000000e-01 5.0000000000000000e-01
ITEM: ATOMS id type radius mass x y z fx fy fz vx vy vz 
12405 5 0.005 5.23599e-07 0.474432 0.0902405 0 -0.0166755 -0.0673396 0 0.840761 -0.643046 0 
ITEM: TIMESTEP
40
ITEM: NUMBER OF ATOMS
1
ITEM: BOX BOUNDS pp ff pp
0.0000000000000000e+00 1.5000000000000000e+00
0.0000000000000000e+00 4.5000000000000001e-01
-5.0000000000000000e-01 5.0000000000000000e-01
ITEM: ATOMS id type radius mass x y z fx fy fz vx vy vz 
12405 5 0.005 5.23599e-07 0.474632 0.0902405 0 -0.0306824 -0.0673673 0 0.707004 -0.643311 0 
ITEM: TIMESTEP
60
ITEM: NUMBER OF ATOMS
1
ITEM: BOX BOUNDS pp ff pp
0.0000000000000000e+00 1.5000000000000000e+00
0.0000000000000000e+00 4.5000000000000001e-01
-5.0000000000000000e-01 5.0000000000000000e-01
ITEM: ATOMS id type radius mass x y z fx fy fz vx vy vz 
12405 5 0.005 5.23599e-07 0.474832 0.0902405 0 -0.0446885 -0.067395 0 0.573256 -0.643575 0 
ITEM: TIMESTEP
80
ITEM: NUMBER OF ATOMS
1
ITEM: BOX BOUNDS pp ff pp
0.0000000000000000e+00 1.5000000000000000e+00
0.0000000000000000e+00 4.5000000000000001e-01
-5.0000000000000000e-01 5.0000000000000000e-01
ITEM: ATOMS id type radius mass x y z fx fy fz vx vy vz 
12405 5 0.005 5.23599e-07 0.475032 0.0902405 0 -0.0586934 -0.0674225 0 0.439519 -0.643838 0 
ITEM: TIMESTEP
100
ITEM: NUMBER OF ATOMS
1
ITEM: BOX BOUNDS pp ff pp
0.0000000000000000e+00 1.5000000000000000e+00
0.0000000000000000e+00 4.5000000000000001e-01
-5.0000000000000000e-01 5.0000000000000000e-01
ITEM: ATOMS id type radius mass x y z fx fy fz vx vy vz 
12405 5 0.005 5.23599e-07 0.475232 0.0902405 0 -0.0726967 -0.06745 0 0.305798 -0.6441 0 
ITEM: TIMESTEP
120
ITEM: NUMBER OF ATOMS
1
ITEM: BOX BOUNDS pp ff pp
0.0000000000000000e+00 1.5000000000000000e+00
0.0000000000000000e+00 4.5000000000000001e-01
-5.0000000000000000e-01 5.0000000000000000e-01
ITEM: ATOMS id type radius mass x y z fx fy fz vx vy vz 
12405 5 0.005 5.23599e-07 0.475432 0.0902405 0 -0.086698 -0.0674774 0 0.172095 -0.644361 0 
ITEM: TIMESTEP
140
ITEM: NUMBER OF ATOMS
1
ITEM: BOX BOUNDS pp ff pp
0.0000000000000000e+00 1.5000000000000000e+00
0.0000000000000000e+00 4.5000000000000001e-01
-5.0000000000000000e-01 5.0000000000000000e-01
ITEM: ATOMS id type radius mass x y z fx fy fz vx vy vz 
12405 5 0.005 5.23599e-07 0.475632 0.0902405 0 -0.100697 -0.0675046 0 0.0384141 -0.644622 0 
ITEM: TIMESTEP
160
ITEM: NUMBER OF ATOMS
1
ITEM: BOX BOUNDS pp ff pp
0.0000000000000000e+00 1.5000000000000000e+00
0.0000000000000000e+00 4.5000000000000001e-01
-5.0000000000000000e-01 5.0000000000000000e-01
ITEM: ATOMS id type radius mass x y z fx fy fz vx vy vz 
12405 5 0.005 5.23599e-07 0.475832 0.0902405 0 -0.114693 -0.0675318 0 -0.0952417 -0.644881 0 
ITEM: TIMESTEP
180
ITEM: NUMBER OF ATOMS
1
ITEM: BOX BOUNDS pp ff pp
0.0000000000000000e+00 1.5000000000000000e+00
0.0000000000000000e+00 4.5000000000000001e-01
-5.0000000000000000e-01 5.0000000000000000e-01
ITEM: ATOMS id type radius mass x y z fx fy fz vx vy vz 
12405 5 0.005 5.23599e-07 0.476032 0.0902405 0 -0.128687 -0.0675588 0 -0.228869 -0.645139 0 
ITEM: TIMESTEP
200
ITEM: NUMBER OF ATOMS
1
ITEM: BOX BOUNDS pp ff pp
0.0000000000000000e+00 1.5000000000000000e+00
0.0000000000000000e+00 4.5000000000000001e-01
-5.0000000000000000e-01 5.0000000000000000e-01
ITEM: ATOMS id type radius mass x y z fx fy fz vx vy vz 
12405 5 0.005 5.23599e-07 0.476232 0.0902405 0 -0.142677 -0.0675857 0 -0.362466 -0.645396 0 
ITEM: TIMESTEP
220
ITEM: NUMBER OF ATOMS
1
ITEM: BOX BOUNDS pp ff pp
0.0000000000000000e+00 1.5000000000000000e+00
0.0000000000000000e+00 4.5000000000000001e-01
-5.0000000000000000e-01 5.0000000000000000e-01
ITEM: ATOMS id type radius mass x y z fx fy fz vx vy vz 
12405 5 0.005 5.23599e-07 0.476432 0.0902405 0 -0.156664 -0.0676125 0 -0.496029 -0.645651 0 
ITEM: TIMESTEP
240
ITEM: NUMBER OF ATOMS
1
ITEM: BOX BOUNDS pp ff pp
0.0000000000000000e+00 1.5000000000000000e+00
0.0000000000000000e+00 4.5000000000000001e-01
-5.0000000000000000e-01 5.0000000000000000e-01
ITEM: ATOMS id type radius mass x y z fx fy fz vx vy vz 
12405 5 0.005 5.23599e-07 0.476632 0.0902405 0 -0.170647 -0.0676391 0 -0.629555 -0.645905 0 
ITEM: TIMESTEP
260
ITEM: NUMBER OF ATOMS
1
ITEM: BOX BOUNDS pp ff pp
0.0000000000000000e+00 1.5000000000000000e+00
0.0000000000000000e+00 4.5000000000000001e-01
-5.0000000000000000e-01 5.0000000000000000e-01
ITEM: ATOMS id type radius mass x y z fx fy fz vx vy vz 
12405 5 0.005 5.23599e-07 0.476832 0.0902405 0 -0.184625 -0.0676655 0 -0.763042 -0.646158 0 
ITEM: TIMESTEP
280
ITEM: NUMBER OF ATOMS
1
ITEM: BOX BOUNDS pp ff pp
0.0000000000000000e+00 1.5000000000000000e+00
0.0000000000000000e+00 4.5000000000000001e-01
-5.0000000000000000e-01 5.0000000000000000e-01
ITEM: ATOMS id type radius mass x y z fx fy fz vx vy vz 
12405 5 0.005 5.23599e-07 0.477032 0.0902405 0 -0.1986 -0.0676919 0 -0.896486 -0.64641 0 
ITEM: TIMESTEP
300
ITEM: NUMBER OF ATOMS
1
ITEM: BOX BOUNDS pp ff pp
0.0000000000000000e+00 1.5000000000000000e+00
0.0000000000000000e+00 4.5000000000000001e-01
-5.0000000000000000e-01 5.0000000000000000e-01
ITEM: ATOMS id type radius mass x y z fx fy fz vx vy vz 
12405 5 0.005 5.23599e-07 0.477232 0.0902405 0 -0.212569 -0.0677181 0 -1.02989 -0.64666 0 
ITEM: TIMESTEP
320
ITEM: NUMBER OF ATOMS
1
ITEM: BOX BOUNDS pp ff pp
0.0000000000000000e+00 1.5000000000000000e+00
0.0000000000000000e+00 4.5000000000000001e-01
-5.0000000000000000e-01 5.0000000000000000e-01
ITEM: ATOMS id type radius mass x y z fx fy fz vx vy vz 
12405 5 0.005 5.23599e-07 0.477432 0.0902405 0 -0.226534 -0.0677441 0 -1.16324 -0.646909 0 
ITEM: TIMESTEP
340
ITEM: NUMBER OF ATOMS
1
ITEM: BOX BOUNDS pp ff pp
0.0000000000000000e+00 1.5000000000000000e+00
0.0000000000000000e+00 4.5000000000000001e-01
-5.0000000000000000e-01 5.0000000000000000e-01
ITEM: ATOMS id type radius mass x y z fx fy fz vx vy vz 
12405 5 0.005 5.23599e-07 0.477632 0.0902405 0 -0.240493 -0.0677701 0 -1.29654 -0.647156 0 
ITEM: TIMESTEP
360
ITEM: NUMBER OF ATOMS
1
ITEM: BOX BOUNDS pp ff pp
0.0000000000000000e+00 1.5000000000000000e+00
0.0000000000000000e+00 4.5000000000000001e-01
-5.0000000000000000e-01 5.0000000000000000e-01
ITEM: ATOMS id type radius mass x y z fx fy fz vx vy vz 
12405 5 0.005 5.23599e-07 0.477832 0.0902405 0 -0.254447 -0.0677959 0 -1.42979 -0.647403 0 
ITEM: TIMESTEP
380
ITEM: NUMBER OF ATOMS
1
ITEM: BOX BOUNDS pp ff pp
0.0000000000000000e+00 1.5000000000000000e+00
0.0000000000000000e+00 4.5000000000000001e-01
-5.0000000000000000e-01 5.0000000000000000e-01
ITEM: ATOMS id type radius mass x y z fx fy fz vx vy vz 
12405 5 0.005 5.23599e-07 0.478032 0.0902405 0 -0.268395 -0.0678216 0 -1.56298 -0.647648 0 
ITEM: TIMESTEP
400
ITEM: NUMBER OF ATOMS
1
ITEM: BOX BOUNDS pp ff pp
0.0000000000000000e+00 1.5000000000000000e+00
0.0000000000000000e+00 4.5000000000000001e-01
-5.0000000000000000e-01 5.0000000000000000e-01
ITEM: ATOMS id type radius mass x y z fx fy fz vx vy vz 
12405 5 0.005 5.23599e-07 0.478232 0.0902405 0 -0.282336 -0.0678471 0 -1.69611 -0.647893 0 
ITEM: TIMESTEP
420
ITEM: NUMBER OF ATOMS
1
ITEM: BOX BOUNDS pp ff pp
0.0000000000000000e+00 1.5000000000000000e+00
0.0000000000000000e+00 4.5000000000000001e-01
-5.0000000000000000e-01 5.0000000000000000e-01
ITEM: ATOMS id type radius mass x y z fx fy fz vx vy vz 
12405 5 0.005 5.23599e-07 0.478432 0.0902405 0 -0.296272 -0.0678726 0 -1.82919 -0.648136 0 
ITEM: TIMESTEP
440
ITEM: NUMBER OF ATOMS
1
ITEM: BOX BOUNDS pp ff pp
0.0000000000000000e+00 1.5000000000000000e+00
0.0000000000000000e+00 4.5000000000000001e-01
-5.0000000000000000e-01 5.0000000000000000e-01
ITEM: ATOMS id type radius mass x y z fx fy fz vx vy vz 
12405 5 0.005 5.23599e-07 0.478632 0.0902405 0 -0.310201 -0.0678979 0 -1.9622 -0.648378 0 
ITEM: TIMESTEP
460
ITEM: NUMBER OF ATOMS
1
ITEM: BOX BOUNDS pp ff pp
0.0000000000000000e+00 1.5000000000000000e+00
0.0000000000000000e+00 4.5000000000000001e-01
-5.0000000000000000e-01 5.0000000000000000e-01
ITEM: ATOMS id type radius mass x y z fx fy fz vx vy vz 
12405 5 0.005 5.23599e-07 0.478832 0.0902405 0 -0.324123 -0.0679231 0 -2.09515 -0.648618 0 
ITEM: TIMESTEP
480
ITEM: NUMBER OF ATOMS
1
ITEM: BOX BOUNDS pp ff pp
0.0000000000000000e+00 1.5000000000000000e+00
0.0000000000000000e+00 4.5000000000000001e-01
-5.0000000000000000e-01 5.0000000000000000e-01
ITEM: ATOMS id type radius mass x y z fx fy fz vx vy vz 
12405 5 0.005 5.23599e-07 0.479032 0.0902405 0 -0.338038 -0.0679482 0 -2.22803 -0.648858 0 
ITEM: TIMESTEP
500
ITEM: NUMBER OF ATOMS
1
ITEM: BOX BOUNDS pp ff pp
0.0000000000000000e+00 1.5000000000000000e+00
0.0000000000000000e+00 4.5000000000000001e-01
-5.0000000000000000e-01 5.0000000000000000e-01
ITEM: ATOMS id type radius mass x y z fx fy fz vx vy vz 
12405 5 0.005 5.23599e-07 0.479232 0.0902405 0 -0.351946 -0.0679731 0 -2.36084 -0.649096 0 
ITEM: TIMESTEP
520
ITEM: NUMBER OF ATOMS
1
ITEM: BOX BOUNDS pp ff pp
0.0000000000000000e+00 1.5000000000000000e+00
0.0000000000000000e+00 4.5000000000000001e-01
-5.0000000000000000e-01 5.0000000000000000e-01
ITEM: ATOMS id type radius mass x y z fx fy fz vx vy vz 
12405 5 0.005 5.23599e-07 0.479432 0.0902405 0 -0.365846 -0.0679979 0 -2.49357 -0.649332 0 
ITEM: TIMESTEP
540
ITEM: NUMBER OF ATOMS
1
ITEM: BOX BOUNDS pp ff pp
0.0000000000000000e+00 1.5000000000000000e+00
0.0000000000000000e+00 4.5000000000000001e-01
-5.0000000000000000e-01 5.0000000000000000e-01
ITEM: ATOMS id type radius mass x y z fx fy fz vx vy vz 
12405 5 0.005 5.23599e-07 0.479632 0.0902405 0 -0.379739 -0.0680225 0 -2.62624 -0.649567 0 
ITEM: TIMESTEP
560
ITEM: NUMBER OF ATOMS
1
ITEM: BOX BOUNDS pp ff pp
0.0000000000000000e+00 1.5000000000000000e+00
0.0000000000000000e+00 4.5000000000000001e-01
-5.0000000000000000e-01 5.0000000000000000e-01
ITEM: ATOMS id type radius mass x y z fx fy fz vx vy vz 
12405 5 0.005 5.23599e-07 0.479832 0.0902405 0 -0.393623 -0.068047 0 -2.75883 -0.649801 0 
ITEM: TIMESTEP
580
ITEM: NUMBER OF ATOMS
1
ITEM: BOX BOUNDS pp ff pp
0.0000000000000000e+00 1.5000000000000000e+00
0.0000000000000000e+00 4.5000000000000001e-01
-5.0000000000000000e-01 5.0000000000000000e-01
ITEM: ATOMS id type radius mass x y z fx fy fz vx vy vz 
12405 5 0.005 5.23599e-07 0.480032 0.0902405 0 -0.4075 -0.0680713 0 -2.89134 -0.650033 0 
ITEM: TIMESTEP
600
ITEM: NUMBER OF ATOMS
1
ITEM: BOX BOUNDS pp ff pp
0.0000000000000000e+00 1.5000000000000000e+00
0.0000000000000000e+00 4.5000000000000001e-01
-5.0000000000000000e-01 5.0000000000000000e-01
ITEM: ATOMS id type radius mass x y z fx fy fz vx vy vz 
12405 5 0.005 5.23599e-07 0.480232 0.0902405 0 -0.421368 -0.0680954 0 -3.02376 -0.650263 0 
ITEM: TIMESTEP
620
ITEM: NUMBER OF ATOMS
1
ITEM: BOX BOUNDS pp ff pp
0.0000000000000000e+00 1.5000000000000000e+00
0.0000000000000000e+00 4.5000000000000001e-01
-5.0000000000000000e-01 5.0000000000000000e-01
ITEM: ATOMS id type radius mass x y z fx fy fz vx vy vz 
12405 5 0.005 5.23599e-07 0.480432 0.0902405 0 -0.435227 -0.0681194 0 -3.15611 -0.650492 0 
ITEM: TIMESTEP
640
ITEM: NUMBER OF ATOMS
1
ITEM: BOX BOUNDS pp ff pp
0.0000000000000000e+00 1.5000000000000000e+00
0.0000000000000000e+00 4.5000000000000001e-01
-5.0000000000000000e-01 5.0000000000000000e-01
ITEM: ATOMS id type radius mass x y z fx fy fz vx vy vz 
12405 5 0.005 5.23599e-07 0.480632 0.0902405 0 -0.449077 -0.0681432 0 -3.28837 -0.65072 0 
ITEM: TIMESTEP
660
ITEM: NUMBER OF ATOMS
1
ITEM: BOX BOUNDS pp ff pp
0.0000000000000000e+00 1.5000000000000000e+00
0.0000000000000000e+00 4.5000000000000001e-01
-5.0000000000000000e-01 5.0000000000000000e-01
ITEM: ATOMS id type radius mass x y z fx fy fz vx vy vz 
12405 5 0.005 5.23599e-07 0.480832 0.0902405 0 -0.462919 -0.0681669 0 -3.42055 -0.650946 0 
ITEM: TIMESTEP
680
ITEM: NUMBER OF ATOMS
1
ITEM: BOX BOUNDS pp ff pp
0.0000000000000000e+00 1.5000000000000000e+00
0.0000000000000000e+00 4.5000000000000001e-01
-5.0000000000000000e-01 5.0000000000000000e-01
ITEM: ATOMS id type radius mass x y z fx fy fz vx vy vz 
12405 5 0.005 5.23599e-07 0.481032 0.0902405 0 -0.476751 -0.0681903 0 -3.55264 -0.65117 0 
ITEM: TIMESTEP
700
ITEM: NUMBER OF ATOMS
1
ITEM: BOX BOUNDS pp ff pp
0.0000000000000000e+00 1.5000000000000000e+00
0.0000000000000000e+00 4.5000000000000001e-01
-5.0000000000000000e-01 5.0000000000000000e-01
ITEM: ATOMS id type radius mass x y z fx fy fz vx vy vz 
12405 5 0.005 5.23599e-07 0.481232 0.0902405 0 -0.490574 -0.0682135 0 -3.68463 -0.651391 0 
ITEM: TIMESTEP
720
ITEM: NUMBER OF ATOMS
1
ITEM: BOX BOUNDS pp ff pp
0.0000000000000000e+00 1.5000000000000000e+00
0.0000000000000000e+00 4.5000000000000001e-01
-5.0000000000000000e-01 5.0000000000000000e-01
ITEM: ATOMS id type radius mass x y z fx fy fz vx vy vz 
12405 5 0.005 5.23599e-07 0.481432 0.0902405 0 -0.504387 -0.0682362 0 -3.81654 -0.651608 0 
ITEM: TIMESTEP
740
ITEM: NUMBER OF ATOMS
1
ITEM: BOX BOUNDS pp ff pp
0.0000000000000000e+00 1.5000000000000000e+00
0.0000000000000000e+00 4.5000000000000001e-01
-5.0000000000000000e-01 5.0000000000000000e-01
ITEM: ATOMS id type radius mass x y z fx fy fz vx vy vz 
12405 5 0.005 5.23599e-07 0.481632 0.0902405 0 -0.518189 -0.0682586 0 -3.94835 -0.651822 0 
ITEM: TIMESTEP
760
ITEM: NUMBER OF ATOMS
1
ITEM: BOX BOUNDS pp ff pp
0.0000000000000000e+00 1.5000000000000000e+00
0.0000000000000000e+00 4.5000000000000001e-01
-5.0000000000000000e-01 5.0000000000000000e-01
ITEM: ATOMS id type radius mass x y z fx fy fz vx vy vz 
12405 5 0.005 5.23599e-07 0.481832 0.0902405 0 -0.531982 -0.0682806 0 -4.08006 -0.652032 0 
ITEM: TIMESTEP
780
ITEM: NUMBER OF ATOMS
1
ITEM: BOX BOUNDS pp ff pp
0.0000000000000000e+00 1.5000000000000000e+00
0.0000000000000000e+00 4.5000000000000001e-01
-5.0000000000000000e-01 5.0000000000000000e-01
ITEM: ATOMS id type radius mass x y z fx fy fz vx vy vz 
12405 5 0.005 5.23599e-07 0.482032 0.0902405 0 -0.545764 -0.0683021 0 -4.21167 -0.652237 0 
ITEM: TIMESTEP
800
ITEM: NUMBER OF ATOMS
1
ITEM: BOX BOUNDS pp ff pp
0.0000000000000000e+00 1.5000000000000000e+00
0.0000000000000000e+00 4.5000000000000001e-01
-5.0000000000000000e-01 5.0000000000000000e-01
ITEM: ATOMS id type radius mass x y z fx fy fz vx vy vz 
12405 5 0.005 5.23599e-07 0.482232 0.0902405 0 -0.559536 -0.0683232 0 -4.34318 -0.652439 0 
ITEM: TIMESTEP
820
ITEM: NUMBER OF ATOMS
1
ITEM: BOX BOUNDS pp ff pp
0.0000000000000000e+00 1.5000000000000000e+00
0.0000000000000000e+00 4.5000000000000001e-01
-5.0000000000000000e-01 5.0000000000000000e-01
ITEM: ATOMS id type radius mass x y z fx fy fz vx vy vz 
12405 5 0.005 5.23599e-07 0.482432 0.0902405 0 -0.573297 -0.0683438 0 -4.47458 -0.652636 0 
ITEM: TIMESTEP
840
ITEM: NUMBER OF ATOMS
1
ITEM: BOX BOUNDS pp ff pp
0.0000000000000000e+00 1.5000000000000000e+00
0.0000000000000000e+00 4.5000000000000001e-01
-5.0000000000000000e-01 5.0000000000000000e-01
ITEM: ATOMS id type radius mass x y z fx fy fz vx vy vz 
12405 5 0.005 5.23599e-07 0.482632 0.0902405 0 -0.587047 -0.068364 0 -4.60588 -0.652828 0 
ITEM: TIMESTEP
860
ITEM: NUMBER OF ATOMS
1
ITEM: BOX BOUNDS pp ff pp
0.0000000000000000e+00 1.5000000000000000e+00
0.0000000000000000e+00 4.5000000000000001e-01
-5.0000000000000000e-01 5.0000000000000000e-01
ITEM: ATOMS id type radius mass x y z fx fy fz vx vy vz 
12405 5 0.005 5.23599e-07 0.482832 0.0902405 0 -0.600785 -0.0683835 0 -4.73708 -0.653015 0 
ITEM: TIMESTEP
880
ITEM: NUMBER OF ATOMS
1
ITEM: BOX BOUNDS pp ff pp
0.0000000000000000e+00 1.5000000000000000e+00
0.0000000000000000e+00 4.5000000000000001e-01
-5.0000000000000000e-01 5.0000000000000000e-01
ITEM: ATOMS id type radius mass x y z fx fy fz vx vy vz 
12405 5 0.005 5.23599e-07 0.483032 0.0902405 0 -0.614513 -0.0684025 0 -4.86816 -0.653196 0 
ITEM: TIMESTEP
900
ITEM: NUMBER OF ATOMS
1
ITEM: BOX BOUNDS pp ff pp
0.0000000000000000e+00 1.5000000000000000e+00
0.0000000000000000e+00 4.5000000000000001e-01
-5.0000000000000000e-01 5.0000000000000000e-01
ITEM: ATOMS id type radius mass x y z fx fy fz vx vy vz 
12405 5 0.005 5.23599e-07 0.483232 0.0902405 0 -0.628228 -0.0684208 0 -4.99914 -0.653371 0 
ITEM: TIMESTEP
920
ITEM: NUMBER OF ATOMS
1
ITEM: BOX BOUNDS pp ff pp
0.0000000000000000e+00 1.5000000000000000e+00
0.0000000000000000e+00 4.5000000000000001e-01
-5.0000000000000000e-01 5.0000000000000000e-01
ITEM: ATOMS id type radius mass x y z fx fy fz vx vy vz 
12405 5 0.005 5.23599e-07 0.483432 0.0902405 0 -0.641933 -0.0684385 0 -5.13 -0.653539 0 
ITEM: TIMESTEP
940
ITEM: NUMBER OF ATOMS
1
ITEM: BOX BOUNDS pp ff pp
0.0000000000000000e+00 1.5000000000000000e+00
0.0000000000000000e+00 4.5000000000000001e-01
-5.0000000000000000e-01 5.0000000000000000e-01
ITEM: ATOMS id type radius mass x y z fx fy fz vx vy vz 
12405 5 0.005 5.23599e-07 0.483632 0.0902405 0 -0.655625 -0.0684555 0 -5.26076 -0.653702 0 
ITEM: TIMESTEP
960
ITEM: NUMBER OF ATOMS
1
ITEM: BOX BOUNDS pp ff pp
0.0000000000000000e+00 1.5000000000000000e+00
0.0000000000000000e+00 4.5000000000000001e-01
-5.0000000000000000e-01 5.0000000000000000e-01
ITEM: ATOMS id type radius mass x y z fx fy fz vx vy vz 
12405 5 0.005 5.23599e-07 0.483832 0.0902405 0 -0.669305 -0.0684719 0 -5.39139 -0.653859 0 
ITEM: TIMESTEP
980
ITEM: NUMBER OF ATOMS
1
ITEM: BOX BOUNDS pp ff pp
0.0000000000000000e+00 1.5000000000000000e+00
0.0000000000000000e+00 4.5000000000000001e-01
-5.0000000000000000e-01 5.0000000000000000e-01
ITEM: ATOMS id type radius mass x y z fx fy fz vx vy vz 
12405 5 0.005 5.23599e-07 0.484032 0.0902405 0 -0.682973 -0.0684877 0 -5.52191 -0.654009 0 
ITEM: TIMESTEP
1000
ITEM: NUMBER OF ATOMS
1
ITEM: BOX BOUNDS pp ff pp
0.0000000000000000e+00 1.5000000000000000e+00
0.0000000000000000e+00 4.5000000000000001e-01
-5.0000000000000000e-01 5.0000000000000000e-01
ITEM: ATOMS id type radius mass x y z fx fy fz vx vy vz 
12405 5 0.005 5.23599e-07 0.484232 0.0902405 0 -0.696629 -0.0685028 0 -5.65231 -0.654153 0 
ITEM: TIMESTEP
1020
ITEM: NUMBER OF ATOMS
1
ITEM: BOX BOUNDS pp ff pp
0.0000000000000000e+00 1.5000000000000000e+00
0.0000000000000000e+00 4.5000000000000001e-01
-5.0000000000000000e-01 5.0000000000000000e-01
ITEM: ATOMS id type radius mass x y z fx fy fz vx vy vz 
12405 5 0.005 5.23599e-07 0.484432 0.0902405 0 -0.710272 -0.0685172 0 -5.7826 -0.654291 0 
ITEM: TIMESTEP
1040
ITEM: NUMBER OF ATOMS
1
ITEM: BOX BOUNDS pp ff pp
0.0000000000000000e+00 1.5000000000000000e+00
0.0000000000000000e+00 4.5000000000000001e-01
-5.0000000000000000e-01 5.0000000000000000e-01
ITEM: ATOMS id type radius mass x y z fx fy fz vx vy vz 
12405 5 0.005 5.23599e-07 0.484632 0.0902405 0 -0.723902 -0.0685308 0 -5.91276 -0.654421 0 
ITEM: TIMESTEP
1060
ITEM: NUMBER OF ATOMS
1
ITEM: BOX BOUNDS pp ff pp
0.0000000000000000e+00 1.5000000000000000e+00
0.0000000000000000e+00 4.5000000000000001e-01
-5.0000000000000000e-01 5.0000000000000000e-01
ITEM: ATOMS id type radius mass x y z fx fy fz vx vy vz 
12405 5 0.005 5.23599e-07 0.484832 0.0902405 0 -0.73752 -0.0685438 0 -6.0428 -0.654545 0 
ITEM: TIMESTEP
1080
ITEM: NUMBER OF ATOMS
1
ITEM: BOX BOUNDS pp ff pp
0.0000000000000000e+00 1.5000000000000000e+00
0.0000000000000000e+00 4.5000000000000001e-01
-5.0000000000000000e-01 5.0000000000000000e-01
ITEM: ATOMS id type radius mass x y z fx fy fz vx vy vz 
12405 5 0.005 5.23599e-07 0.485032 0.0902405 0 -0.751125 -0.0685559 0 -6.17271 -0.654661 0 
ITEM: TIMESTEP
1100
ITEM: NUMBER OF ATOMS
1
ITEM: BOX BOUNDS pp ff pp
0.0000000000000000e+00 1.5000000000000000e+00
0.0000000000000000e+00 4.5000000000000001e-01
-5.0000000000000000e-01 5.0000000000000000e-01
ITEM: ATOMS id type radius mass x y z fx fy fz vx vy vz 
12405 5 0.005 5.23599e-07 0.485232 0.0902405 0 -0.764716 -0.0685674 0 -6.3025 -0.65477 0 
ITEM: TIMESTEP
1120
ITEM: NUMBER OF ATOMS
1
ITEM: BOX BOUNDS pp ff pp
0.0000000000000000e+00 1.5000000000000000e+00
0.0000000000000000e+00 4.5000000000000001e-01
-5.0000000000000000e-01 5.0000000000000000e-01
ITEM: ATOMS id type radius mass x y z fx fy fz vx vy vz 
12405 5 0.005 5.23599e-07 0.485432 0.0902405 0 -0.778294 -0.068578 0 -6.43216 -0.654871 0 
ITEM: TIMESTEP
1140
ITEM: NUMBER OF ATOMS
1
ITEM: BOX BOUNDS pp ff pp
0.0000000000000000e+00 1.5000000000000000e+00
0.0000000000000000e+00 4.5000000000000001e-01
-5.0000000000000000e-01 5.0000000000000000e-01
ITEM: ATOMS id type radius mass x y z fx fy fz vx vy vz 
12405 5 0.005 5.23599e-07 0.485632 0.0902405 0 -0.791859 -0.0685877 0 -6.5617 -0.654965 0 
ITEM: TIMESTEP
1160
ITEM: NUMBER OF ATOMS
1
ITEM: BOX BOUNDS pp ff pp
0.0000000000000000e+00 1.5000000000000000e+00
0.0000000000000000e+00 4.5000000000000001e-01
-5.0000000000000000e-01 5.0000000000000000e-01
ITEM: ATOMS id type radius mass x y z fx fy fz vx vy vz 
12405 5 0.005 5.23599e-07 0.485832 0.0902405 0 -0.80541 -0.0685966 0 -6.6911 -0.65505 0 
ITEM: TIMESTEP
1180
ITEM: NUMBER OF ATOMS
1
ITEM: BOX BOUNDS pp ff pp
0.0000000000000000e+00 1.5000000000000000e+00
0.0000000000000000e+00 4.5000000000000001e-01
-5.0000000000000000e-01 5.0000000000000000e-01
ITEM: ATOMS id type radius mass x y z fx fy fz vx vy vz 
12405 5 0.005 5.23599e-07 0.486032 0.0902405 0 -0.818947 -0.0686045 0 -6.82037 -0.655124 0 
ITEM: TIMESTEP
1200
ITEM: NUMBER OF ATOMS
1
ITEM: BOX BOUNDS pp ff pp
0.0000000000000000e+00 1.5000000000000000e+00
0.0000000000000000e+00 4.5000000000000001e-01
-5.0000000000000000e-01 5.0000000000000000e-01
ITEM: ATOMS id type radius mass x y z fx fy fz vx vy vz 
12405 5 0.005 5.23599e-07 0.486232 0.0902405 0 -0.83247 -0.0686112 0 -6.9495 -0.655189 0 
ITEM: TIMESTEP
1220
ITEM: NUMBER OF ATOMS
1
ITEM: BOX BOUNDS pp ff pp
0.0000000000000000e+00 1.5000000000000000e+00
0.0000000000000000e+00 4.5000000000000001e-01
-5.0000000000000000e-01 5.0000000000000000e-01
ITEM: ATOMS id type radius mass x y z fx fy fz vx vy vz 
12405 5 0.005 5.23599e-07 0.486432 0.0902405 0 -0.845979 -0.0686168 0 -7.0785 -0.655242 0 
ITEM: TIMESTEP
1240
ITEM: NUMBER OF ATOMS
1
ITEM: BOX BOUNDS pp ff pp
0.0000000000000000e+00 1.5000000000000000e+00
0.0000000000000000e+00 4.5000000000000001e-01
-5.0000000000000000e-01 5.0000000000000000e-01
ITEM: ATOMS id type radius mass x y z fx fy fz vx vy vz 
12405 5 0.005 5.23599e-07 0.486632 0.0902405 0 -0.859473 -0.0686212 0 -7.20736 -0.655285 0 
ITEM: TIMESTEP
1260
ITEM: NUMBER OF ATOMS
1
ITEM: BOX BOUNDS pp ff pp
0.0000000000000000e+00 1.5000000000000000e+00
0.0000000000000000e+00 4.5000000000000001e-01
-5.0000000000000000e-01 5.0000000000000000e-01
ITEM: ATOMS id type radius mass x y z fx fy fz vx vy vz 
12405 5 0.005 5.23599e-07 0.486832 0.0902405 0 -0.872953 -0.0686244 0 -7.33609 -0.655315 0 
ITEM: TIMESTEP
1280
ITEM: NUMBER OF ATOMS
1
ITEM: BOX BOUNDS pp ff pp
0.0000000000000000e+00 1.5000000000000000e+00
0.0000000000000000e+00 4.5000000000000001e-01
-5.0000000000000000e-01 5.0000000000000000e-01
ITEM: ATOMS id type radius mass x y z fx fy fz vx vy vz 
12405 5 0.005 5.23599e-07 0.487032 0.0902405 0 -0.886418 -0.0686262 0 -7.46467 -0.655332 0 
ITEM: TIMESTEP
1300
ITEM: NUMBER OF ATOMS
1
ITEM: BOX BOUNDS pp ff pp
0.0000000000000000e+00 1.5000000000000000e+00
0.0000000000000000e+00 4.5000000000000001e-01
-5.0000000000000000e-01 5.0000000000000000e-01
ITEM: ATOMS id type radius mass x y z fx fy fz vx vy vz 
12405 5 0.005 5.23599e-07 0.487232 0.0902405 0 -0.899867 -0.0686265 0 -7.5931 -0.655334 0 
ITEM: TIMESTEP
1320
ITEM: NUMBER OF ATOMS
1
ITEM: BOX BOUNDS pp ff pp
0.0000000000000000e+00 1.5000000000000000e+00
0.0000000000000000e+00 4.5000000000000001e-01
-5.0000000000000000e-01 5.0000000000000000e-01
ITEM: ATOMS id type radius mass x y z fx fy fz vx vy vz 
12405 5 0.005 5.23599e-07 0.487432 0.0902405 0 -0.913302 -0.0686252 0 -7.72139 -0.655322 0 
ITEM: TIMESTEP
1340
ITEM: NUMBER OF ATOMS
1
ITEM: BOX BOUNDS pp ff pp
0.0000000000000000e+00 1.5000000000000000e+00
0.0000000000000000e+00 4.5000000000000001e-01
-5.0000000000000000e-01 5.0000000000000000e-01
ITEM: ATOMS id type radius mass x y z fx fy fz vx vy vz 
12405 5 0.005 5.23599e-07 0.487632 0.0902405 0 -0.926721 -0.0686224 0 -7.84953 -0.655295 0 
ITEM: TIMESTEP
1360
ITEM: NUMBER OF ATOMS
1
ITEM: BOX BOUNDS pp ff pp
0.0000000000000000e+00 1.5000000000000000e+00
0.0000000000000000e+00 4.5000000000000001e-01
-5.0000000000000000e-01 5.0000000000000000e-01
ITEM: ATOMS id type radius mass x y z fx fy fz vx vy vz 
12405 5 0.005 5.23599e-07 0.487832 0.0902405 0 -0.940124 -0.0686179 0 -7.97752 -0.655253 0 
ITEM: TIMESTEP
1380
ITEM: NUMBER OF ATOMS
1
ITEM: BOX BOUNDS pp ff pp
0.0000000000000000e+00 1.5000000000000000e+00
0.0000000000000000e+00 4.5000000000000001e-01
-5.0000000000000000e-01 5.0000000000000000e-01
ITEM: ATOMS id type radius mass x y z fx fy fz vx vy vz 
12405 5 0.005 5.23599e-07 0.488032 0.0902405 0 -0.953511 -0.0686119 0 -8.10536 -0.655195 0 
ITEM: TIMESTEP
1400
ITEM: NUMBER OF ATOMS
1
ITEM: BOX BOUNDS pp ff pp
0.0000000000000000e+00 1.5000000000000000e+00
0.0000000000000000e+00 4.5000000000000001e-01
-5.0000000000000000e-01 5.0000000000000000e-01
ITEM: ATOMS id type radius mass x y z fx fy fz vx vy vz 
12405 5 0.005 5.23599e-07 0.488232 0.0902405 0 -0.966882 -0.0686042 0 -8.23305 -0.655122 0 
ITEM: TIMESTEP
1420
ITEM: NUMBER OF ATOMS
1
ITEM: BOX BOUNDS pp ff pp
0.0000000000000000e+00 1.5000000000000000e+00
0.0000000000000000e+00 4.5000000000000001e-01
-5.0000000000000000e-01 5.0000000000000000e-01
ITEM: ATOMS id type radius mass x y z fx fy fz vx vy vz 
12405 5 0.005 5.23599e-07 0.488432 0.0902405 0 -0.980237 -0.0685948 0 -8.36058 -0.655032 0 
ITEM: TIMESTEP
1440
ITEM: NUMBER OF ATOMS
1
ITEM: BOX BOUNDS pp ff pp
0.0000000000000000e+00 1.5000000000000000e+00
0.0000000000000000e+00 4.5000000000000001e-01
-5.0000000000000000e-01 5.0000000000000000e-01
ITEM: ATOMS id type radius mass x y z fx fy fz vx vy vz 
12405 5 0.005 5.23599e-07 0.488632 0.0902405 0 -0.993575 -0.0685835 0 -8.48795 -0.654925 0 
ITEM: TIMESTEP
1460
ITEM: NUMBER OF ATOMS
1
ITEM: BOX BOUNDS pp ff pp
0.0000000000000000e+00 1.5000000000000000e+00
0.0000000000000000e+00 4.5000000000000001e-01
-5.0000000000000000e-01 5.0000000000000000e-01
ITEM: ATOMS id type radius mass x y z fx fy fz vx vy vz 
12405 5 0.005 5.23599e-07 0.488832 0.0902405 0 -1.0069 -0.0685704 0 -8.61516 -0.654799 0 
ITEM: TIMESTEP
1480
ITEM: NUMBER OF ATOMS
1
ITEM: BOX BOUNDS pp ff pp
0.0000000000000000e+00 1.5000000000000000e+00
0.0000000000000000e+00 4.5000000000000001e-01
-5.0000000000000000e-01 5.0000000000000000e-01
ITEM: ATOMS id type radius mass x y z fx fy fz vx vy vz 
12405 5 0.005 5.23599e-07 0.489032 0.0902405 0 -1.0202 -0.0685553 0 -8.74221 -0.654655 0 
ITEM: TIMESTEP
1500
ITEM: NUMBER OF ATOMS
1
ITEM: BOX BOUNDS pp ff pp
0.0000000000000000e+00 1.5000000000000000e+00
0.0000000000000000e+00 4.5000000000000001e-01
-5.0000000000000000e-01 5.0000000000000000e-01
ITEM: ATOMS id type radius mass x y z fx fy fz vx vy vz 
12405 5 0.005 5.23599e-07 0.489232 0.0902405 0 -1.03349 -0.0685381 0 -8.86909 -0.65449 0 
ITEM: TIMESTEP
1520
ITEM: NUMBER OF ATOMS
1
ITEM: BOX BOUNDS pp ff pp
0.0000000000000000e+00 1.5000000000000000e+00
0.0000000000000000e+00 4.5000000000000001e-01
-5.0000000000000000e-01 5.0000000000000000e-01
ITEM: ATOMS id type radius mass x y z fx fy fz vx vy vz 
12405 5 0.005 5.23599e-07 0.489432 0.0902405 0 -1.04676 -0.0685186 0 -8.99581 -0.654304 0 
ITEM: TIMESTEP
1540
ITEM: NUMBER OF ATOMS
1
ITEM: BOX BOUNDS pp ff pp
0.0000000000000000e+00 1.5000000000000000e+00
0.0000000000000000e+00 4.5000000000000001e-01
-5.0000000000000000e-01 5.0000000000000000e-01
ITEM: ATOMS id type radius mass x y z fx fy fz vx vy vz 
12405 5 0.005 5.23599e-07 0.489632 0.0902405 0 -1.06001 -0.0684967 0 -9.12236 -0.654096 0 
ITEM: TIMESTEP
1560
ITEM: NUMBER OF ATOMS
1
ITEM: BOX BOUNDS pp ff pp
0.0000000000000000e+00 1.5000000000000000e+00
0.0000000000000000e+00 4.5000000000000001e-01
-5.0000000000000000e-01 5.0000000000000000e-01
ITEM: ATOMS id type radius mass x y z fx fy fz vx vy vz 
12405 5 0.005 5.23599e-07 0.489832 0.0902405 0 -1.07325 -0.0684724 0 -9.24874 -0.653863 0 
ITEM: TIMESTEP
1580
ITEM: NUMBER OF ATOMS
1
ITEM: BOX BOUNDS pp ff pp
0.0000000000000000e+00 1.5000000000000000e+00
0.0000000000000000e+00 4.5000000000000001e-01
-5.0000000000000000e-01 5.0000000000000000e-01
ITEM: ATOMS id type radius mass x y z fx fy fz vx vy vz 
12405 5 0.005 5.23599e-07 0.490032 0.0902405 0 -1.08646 -0.0684455 0 -9.37495 -0.653606 0 
ITEM: TIMESTEP
1600
ITEM: NUMBER OF ATOMS
1
ITEM: BOX BOUNDS pp ff pp
0.0000000000000000e+00 1.5000000000000000e+00
0.0000000000000000e+00 4.5000000000000001e-01
-5.0000000000000000e-01 5.0000000000000000e-01
ITEM: ATOMS id type radius mass x y z fx fy fz vx vy vz 
12405 5 0.005 5.23599e-07 0.490232 0.0902405 0 -1.09966 -0.0684157 0 -9.50098 -0.653322 0 
ITEM: TIMESTEP
1620
ITEM: NUMBER OF ATOMS
1
ITEM: BOX BOUNDS pp ff pp
0.0000000000000000e+00 1.5000000000000000e+00
0.0000000000000000e+00 4.5000000000000001e-01
-5.0000000000000000e-01 5.0000000000000000e-01
ITEM: ATOMS id type radius mass x y z fx fy fz vx vy vz 
12405 5 0.005 5.23599e-07 0.490432 0.0902405 0 -1.11284 -0.0683827 0 -9.62684 -0.653007 0 
ITEM: TIMESTEP
1640
ITEM: NUMBER OF ATOMS
1
ITEM: BOX BOUNDS pp ff pp
0.0000000000000000e+00 1.5000000000000000e+00
0.0000000000000000e+00 4.5000000000000001e-01
-5.0000000000000000e-01 5.0000000000000000e-01
ITEM: ATOMS id type radius mass x y z fx fy fz vx vy vz 
12405 5 0.005 5.23599e-07 0.490632 0.0902405 0 -1.126 -0.0683463 0 -9.75253 -0.652659 0 
ITEM: TIMESTEP
1660
ITEM: NUMBER OF ATOMS
1
ITEM: BOX BOUNDS pp ff pp
0.0000000000000000e+00 1.5000000000000000e+00
0.0000000000000000e+00 4.5000000000000001e-01
-5.0000000000000000e-01 5.0000000000000000e-01
ITEM: ATOMS id type radius mass x y z fx fy fz vx vy vz 
12405 5 0.005 5.23599e-07 0.490832 0.0902405 0 -1.13915 -0.0683063 0 -9.87804 -0.652277 0 
ITEM: TIMESTEP