LAMMPS data file via MATLAB, version R2019a, timestep = 321001

8172 atoms
5 atom types

0.0000000000000000e+00 1.5000000000000000e+00 xlo xhi
0.0000000000000000e+00 4.4999999999999996e-01 ylo yhi
5.0000000000000000e-01 5.0000000000000000e-01 zlo zhi

Atoms # sphere

1 3 1.0000000000000000e-03 3.1410260496773997e+04 1.0050000000000001e-01 1.1350000000000000e-01 0.0000000000000000e+00
2 3 1.0000000000000000e-03 3.1410260496773997e+04 1.0150000000000001e-01 1.1350000000000000e-01 0.0000000000000000e+00
3 3 1.0000000000000000e-03 3.1410260496773997e+04 1.0250000000000001e-01 1.1350000000000000e-01 0.0000000000000000e+00
4 3 1.0000000000000000e-03 3.1410260496773997e+04 1.0350000000000001e-01 1.1350000000000000e-01 0.0000000000000000e+00
5 3 1.0000000000000000e-03 3.1410260496773997e+04 1.0450000000000001e-01 1.1350000000000000e-01 0.0000000000000000e+00
6 3 1.0000000000000000e-03 3.1410260496773997e+04 1.0550000000000001e-01 1.1350000000000000e-01 0.0000000000000000e+00
7 3 1.0000000000000000e-03 3.1410260496773997e+04 1.0650000000000001e-01 1.1350000000000000e-01 0.0000000000000000e+00
8 3 1.0000000000000000e-03 3.1410260496773997e+04 1.0750000000000001e-01 1.1350000000000000e-01 0.0000000000000000e+00
9 3 1.0000000000000000e-03 3.1410260496773997e+04 1.0850000000000001e-01 1.1350000000000000e-01 0.0000000000000000e+00
10 3 1.0000000000000000e-03 3.1410260496773997e+04 1.0950000000000001e-01 1.1350000000000000e-01 0.0000000000000000e+00
11 3 1.0000000000000000e-03 3.1410260496773997e+04 1.1050000000000000e-01 1.1350000000000000e-01 0.0000000000000000e+00
12 3 1.0000000000000000e-03 3.1410260496773997e+04 1.1150000000000000e-01 1.1350000000000000e-01 0.0000000000000000e+00
13 3 1.0000000000000000e-03 3.1410260496773997e+04 1.1250000000000000e-01 1.1350000000000000e-01 0.0000000000000000e+00
14 3 1.0000000000000000e-03 3.1410260496773997e+04 1.1350000000000000e-01 1.1350000000000000e-01 0.0000000000000000e+00
15 3 1.0000000000000000e-03 3.1410260496773997e+04 1.1450000000000000e-01 1.1350000000000000e-01 0.0000000000000000e+00
16 3 1.0000000000000000e-03 3.1410260496773997e+04 1.1550000000000001e-01 1.1350000000000000e-01 0.0000000000000000e+00
17 3 1.0000000000000000e-03 3.1410260496773997e+04 1.1650000000000001e-01 1.1350000000000000e-01 0.0000000000000000e+00
18 3 1.0000000000000000e-03 3.1410260496773997e+04 1.1750000000000001e-01 1.1350000000000000e-01 0.0000000000000000e+00
19 3 1.0000000000000000e-03 3.1410260496773997e+04 1.1850000000000001e-01 1.1350000000000000e-01 0.0000000000000000e+00
20 3 1.0000000000000000e-03 3.1410260496773997e+04 1.1950000000000001e-01 1.1350000000000000e-01 0.0000000000000000e+00
21 3 1.0000000000000000e-03 3.1410260496773997e+04 1.2050000000000001e-01 1.1350000000000000e-01 0.0000000000000000e+00
22 3 1.0000000000000000e-03 3.1410260496773997e+04 1.2150000000000001e-01 1.1350000000000000e-01 0.0000000000000000e+00
23 3 1.0000000000000000e-03 3.1410260496773997e+04 1.2250000000000000e-01 1.1350000000000000e-01 0.0000000000000000e+00
24 3 1.0000000000000000e-03 3.1410260496773997e+04 1.2350000000000000e-01 1.1350000000000000e-01 0.0000000000000000e+00
25 3 1.0000000000000000e-03 3.1410260496773997e+04 1.2450000000000000e-01 1.1350000000000000e-01 0.0000000000000000e+00
26 3 1.0000000000000000e-03 3.1410260496773997e+04 1.2550000000000000e-01 1.1350000000000000e-01 0.0000000000000000e+00
27 3 1.0000000000000000e-03 3.1410260496773997e+04 1.2650000000000000e-01 1.1350000000000000e-01 0.0000000000000000e+00
28 3 1.0000000000000000e-03 3.1410260496773997e+04 1.2750000000000000e-01 1.1350000000000000e-01 0.0000000000000000e+00
29 3 1.0000000000000000e-03 3.1410260496773997e+04 1.2850000000000000e-01 1.1350000000000000e-01 0.0000000000000000e+00
30 3 1.0000000000000000e-03 3.1410260496773997e+04 1.2950000000000000e-01 1.1350000000000000e-01 0.0000000000000000e+00
31 3 1.0000000000000000e-03 3.1410260496773997e+04 1.3050000000000000e-01 1.1350000000000000e-01 0.0000000000000000e+00
32 3 1.0000000000000000e-03 3.1410260496773997e+04 1.3150000000000001e-01 1.1350000000000000e-01 0.0000000000000000e+00
33 3 1.0000000000000000e-03 3.1410260496773997e+04 1.3250000000000001e-01 1.1350000000000000e-01 0.0000000000000000e+00
34 3 1.0000000000000000e-03 3.1410260496773997e+04 1.3350000000000001e-01 1.1350000000000000e-01 0.0000000000000000e+00
35 3 1.0000000000000000e-03 3.1410260496773997e+04 1.3450000000000001e-01 1.1350000000000000e-01 0.0000000000000000e+00
36 3 1.0000000000000000e-03 3.1410260496773997e+04 1.3550000000000001e-01 1.1350000000000000e-01 0.0000000000000000e+00
37 3 1.0000000000000000e-03 3.1410260496773997e+04 1.3650000000000001e-01 1.1350000000000000e-01 0.0000000000000000e+00
38 3 1.0000000000000000e-03 3.1410260496773997e+04 1.3750000000000001e-01 1.1350000000000000e-01 0.0000000000000000e+00
39 3 1.0000000000000000e-03 3.1410260496773997e+04 1.3850000000000001e-01 1.1350000000000000e-01 0.0000000000000000e+00
40 3 1.0000000000000000e-03 3.1410260496773997e+04 1.3950000000000001e-01 1.1350000000000000e-01 0.0000000000000000e+00
41 3 1.0000000000000000e-03 3.1410260496773997e+04 1.4050000000000001e-01 1.1350000000000000e-01 0.0000000000000000e+00
42 3 1.0000000000000000e-03 3.1410260496773997e+04 1.4150000000000001e-01 1.1350000000000000e-01 0.0000000000000000e+00
43 3 1.0000000000000000e-03 3.1410260496773997e+04 1.4250000000000002e-01 1.1350000000000000e-01 0.0000000000000000e+00
44 3 1.0000000000000000e-03 3.1410260496773997e+04 1.4350000000000002e-01 1.1350000000000000e-01 0.0000000000000000e+00
45 3 1.0000000000000000e-03 3.1410260496773997e+04 1.4450000000000002e-01 1.1350000000000000e-01 0.0000000000000000e+00
46 3 1.0000000000000000e-03 3.1410260496773997e+04 1.4550000000000002e-01 1.1350000000000000e-01 0.0000000000000000e+00
47 3 1.0000000000000000e-03 3.1410260496773997e+04 1.4650000000000002e-01 1.1350000000000000e-01 0.0000000000000000e+00
48 3 1.0000000000000000e-03 3.1410260496773997e+04 1.4750000000000002e-01 1.1350000000000000e-01 0.0000000000000000e+00
49 3 1.0000000000000000e-03 3.1410260496773997e+04 1.4850000000000002e-01 1.1350000000000000e-01 0.0000000000000000e+00
50 3 1.0000000000000000e-03 3.1410260496773997e+04 1.4950000000000002e-01 1.1350000000000000e-01 0.0000000000000000e+00
51 3 1.0000000000000000e-03 3.1410260496773997e+04 1.5050000000000002e-01 1.1350000000000000e-01 0.0000000000000000e+00
52 3 1.0000000000000000e-03 3.1410260496773997e+04 1.5150000000000002e-01 1.1350000000000000e-01 0.0000000000000000e+00
53 3 1.0000000000000000e-03 3.1410260496773997e+04 1.5250000000000002e-01 1.1350000000000000e-01 0.0000000000000000e+00
54 3 1.0000000000000000e-03 3.1410260496773997e+04 1.5350000000000000e-01 1.1350000000000000e-01 0.0000000000000000e+00
55 3 1.0000000000000000e-03 3.1410260496773997e+04 1.5450000000000000e-01 1.1350000000000000e-01 0.0000000000000000e+00
56 3 1.0000000000000000e-03 3.1410260496773997e+04 1.5550000000000000e-01 1.1350000000000000e-01 0.0000000000000000e+00
57 3 1.0000000000000000e-03 3.1410260496773997e+04 1.5650000000000000e-01 1.1350000000000000e-01 0.0000000000000000e+00
58 3 1.0000000000000000e-03 3.1410260496773997e+04 1.5750000000000000e-01 1.1350000000000000e-01 0.0000000000000000e+00
59 3 1.0000000000000000e-03 3.1410260496773997e+04 1.5850000000000000e-01 1.1350000000000000e-01 0.0000000000000000e+00
60 3 1.0000000000000000e-03 3.1410260496773997e+04 1.5950000000000000e-01 1.1350000000000000e-01 0.0000000000000000e+00
61 3 1.0000000000000000e-03 3.1410260496773997e+04 1.6050000000000000e-01 1.1350000000000000e-01 0.0000000000000000e+00
62 3 1.0000000000000000e-03 3.1410260496773997e+04 1.6150000000000000e-01 1.1350000000000000e-01 0.0000000000000000e+00
63 3 1.0000000000000000e-03 3.1410260496773997e+04 1.6250000000000001e-01 1.1350000000000000e-01 0.0000000000000000e+00
64 3 1.0000000000000000e-03 3.1410260496773997e+04 1.6350000000000001e-01 1.1350000000000000e-01 0.0000000000000000e+00
65 3 1.0000000000000000e-03 3.1410260496773997e+04 1.6450000000000001e-01 1.1350000000000000e-01 0.0000000000000000e+00
66 3 1.0000000000000000e-03 3.1410260496773997e+04 1.6550000000000001e-01 1.1350000000000000e-01 0.0000000000000000e+00
67 3 1.0000000000000000e-03 3.1410260496773997e+04 1.6650000000000001e-01 1.1350000000000000e-01 0.0000000000000000e+00
68 3 1.0000000000000000e-03 3.1410260496773997e+04 1.6750000000000001e-01 1.1350000000000000e-01 0.0000000000000000e+00
69 3 1.0000000000000000e-03 3.1410260496773997e+04 1.6850000000000001e-01 1.1350000000000000e-01 0.0000000000000000e+00
70 3 1.0000000000000000e-03 3.1410260496773997e+04 1.6950000000000001e-01 1.1350000000000000e-01 0.0000000000000000e+00
71 3 1.0000000000000000e-03 3.1410260496773997e+04 1.7050000000000001e-01 1.1350000000000000e-01 0.0000000000000000e+00
72 3 1.0000000000000000e-03 3.1410260496773997e+04 1.7150000000000001e-01 1.1350000000000000e-01 0.0000000000000000e+00
73 3 1.0000000000000000e-03 3.1410260496773997e+04 1.7250000000000001e-01 1.1350000000000000e-01 0.0000000000000000e+00
74 3 1.0000000000000000e-03 3.1410260496773997e+04 1.7349999999999999e-01 1.1350000000000000e-01 0.0000000000000000e+00
75 3 1.0000000000000000e-03 3.1410260496773997e+04 1.7449999999999999e-01 1.1350000000000000e-01 0.0000000000000000e+00
76 3 1.0000000000000000e-03 3.1410260496773997e+04 1.7549999999999999e-01 1.1350000000000000e-01 0.0000000000000000e+00
77 3 1.0000000000000000e-03 3.1410260496773997e+04 1.7649999999999999e-01 1.1350000000000000e-01 0.0000000000000000e+00
78 3 1.0000000000000000e-03 3.1410260496773997e+04 1.7749999999999999e-01 1.1350000000000000e-01 0.0000000000000000e+00
79 3 1.0000000000000000e-03 3.1410260496773997e+04 1.7849999999999999e-01 1.1350000000000000e-01 0.0000000000000000e+00
80 3 1.0000000000000000e-03 3.1410260496773997e+04 1.7949999999999999e-01 1.1350000000000000e-01 0.0000000000000000e+00
81 3 1.0000000000000000e-03 3.1410260496773997e+04 1.8049999999999999e-01 1.1350000000000000e-01 0.0000000000000000e+00
82 3 1.0000000000000000e-03 3.1410260496773997e+04 1.8149999999999999e-01 1.1350000000000000e-01 0.0000000000000000e+00
83 3 1.0000000000000000e-03 3.1410260496773997e+04 1.8250000000000000e-01 1.1350000000000000e-01 0.0000000000000000e+00
84 3 1.0000000000000000e-03 3.1410260496773997e+04 1.8350000000000000e-01 1.1350000000000000e-01 0.0000000000000000e+00
85 3 1.0000000000000000e-03 3.1410260496773997e+04 1.8450000000000000e-01 1.1350000000000000e-01 0.0000000000000000e+00
86 3 1.0000000000000000e-03 3.1410260496773997e+04 1.8550000000000000e-01 1.1350000000000000e-01 0.0000000000000000e+00
87 3 1.0000000000000000e-03 3.1410260496773997e+04 1.8650000000000000e-01 1.1350000000000000e-01 0.0000000000000000e+00
88 3 1.0000000000000000e-03 3.1410260496773997e+04 1.8750000000000000e-01 1.1350000000000000e-01 0.0000000000000000e+00
89 3 1.0000000000000000e-03 3.1410260496773997e+04 1.8850000000000000e-01 1.1350000000000000e-01 0.0000000000000000e+00
90 3 1.0000000000000000e-03 3.1410260496773997e+04 1.8950000000000000e-01 1.1350000000000000e-01 0.0000000000000000e+00
91 3 1.0000000000000000e-03 3.1410260496773997e+04 1.9050000000000000e-01 1.1350000000000000e-01 0.0000000000000000e+00
92 3 1.0000000000000000e-03 3.1410260496773997e+04 1.9150000000000000e-01 1.1350000000000000e-01 0.0000000000000000e+00
93 3 1.0000000000000000e-03 3.1410260496773997e+04 1.9250000000000000e-01 1.1350000000000000e-01 0.0000000000000000e+00
94 3 1.0000000000000000e-03 3.1410260496773997e+04 1.9350000000000001e-01 1.1350000000000000e-01 0.0000000000000000e+00
95 3 1.0000000000000000e-03 3.1410260496773997e+04 1.9450000000000001e-01 1.1350000000000000e-01 0.0000000000000000e+00
96 3 1.0000000000000000e-03 3.1410260496773997e+04 1.9550000000000001e-01 1.1350000000000000e-01 0.0000000000000000e+00
97 3 1.0000000000000000e-03 3.1410260496773997e+04 1.9650000000000001e-01 1.1350000000000000e-01 0.0000000000000000e+00
98 3 1.0000000000000000e-03 3.1410260496773997e+04 1.9750000000000001e-01 1.1350000000000000e-01 0.0000000000000000e+00
99 3 1.0000000000000000e-03 3.1410260496773997e+04 1.9850000000000001e-01 1.1350000000000000e-01 0.0000000000000000e+00
100 3 1.0000000000000000e-03 3.1410260496773997e+04 1.9950000000000001e-01 1.1350000000000000e-01 0.0000000000000000e+00
101 3 1.0000000000000000e-03 3.1410260496773997e+04 2.0050000000000001e-01 1.1350000000000000e-01 0.0000000000000000e+00
102 3 1.0000000000000000e-03 3.1410260496773997e+04 2.0150000000000001e-01 1.1350000000000000e-01 0.0000000000000000e+00
103 3 1.0000000000000000e-03 3.1410260496773997e+04 2.0250000000000001e-01 1.1350000000000000e-01 0.0000000000000000e+00
104 3 1.0000000000000000e-03 3.1410260496773997e+04 2.0350000000000001e-01 1.1350000000000000e-01 0.0000000000000000e+00
105 3 1.0000000000000000e-03 3.1410260496773997e+04 2.0450000000000002e-01 1.1350000000000000e-01 0.0000000000000000e+00
106 3 1.0000000000000000e-03 3.1410260496773997e+04 2.0550000000000002e-01 1.1350000000000000e-01 0.0000000000000000e+00
107 3 1.0000000000000000e-03 3.1410260496773997e+04 2.0650000000000002e-01 1.1350000000000000e-01 0.0000000000000000e+00
108 3 1.0000000000000000e-03 3.1410260496773997e+04 2.0750000000000002e-01 1.1350000000000000e-01 0.0000000000000000e+00
109 3 1.0000000000000000e-03 3.1410260496773997e+04 2.0850000000000002e-01 1.1350000000000000e-01 0.0000000000000000e+00
110 3 1.0000000000000000e-03 3.1410260496773997e+04 2.0950000000000002e-01 1.1350000000000000e-01 0.0000000000000000e+00
111 3 1.0000000000000000e-03 3.1410260496773997e+04 2.1050000000000002e-01 1.1350000000000000e-01 0.0000000000000000e+00
112 3 1.0000000000000000e-03 3.1410260496773997e+04 2.1150000000000002e-01 1.1350000000000000e-01 0.0000000000000000e+00
113 3 1.0000000000000000e-03 3.1410260496773997e+04 2.1250000000000002e-01 1.1350000000000000e-01 0.0000000000000000e+00
114 3 1.0000000000000000e-03 3.1410260496773997e+04 2.1350000000000002e-01 1.1350000000000000e-01 0.0000000000000000e+00
115 3 1.0000000000000000e-03 3.1410260496773997e+04 2.1450000000000002e-01 1.1350000000000000e-01 0.0000000000000000e+00
116 3 1.0000000000000000e-03 3.1410260496773997e+04 2.1550000000000002e-01 1.1350000000000000e-01 0.0000000000000000e+00
117 3 1.0000000000000000e-03 3.1410260496773997e+04 2.1650000000000003e-01 1.1350000000000000e-01 0.0000000000000000e+00
118 3 1.0000000000000000e-03 3.1410260496773997e+04 2.1750000000000003e-01 1.1350000000000000e-01 0.0000000000000000e+00
119 3 1.0000000000000000e-03 3.1410260496773997e+04 2.1850000000000003e-01 1.1350000000000000e-01 0.0000000000000000e+00
120 3 1.0000000000000000e-03 3.1410260496773997e+04 2.1950000000000003e-01 1.1350000000000000e-01 0.0000000000000000e+00
121 3 1.0000000000000000e-03 3.1410260496773997e+04 2.2050000000000000e-01 1.1350000000000000e-01 0.0000000000000000e+00
122 3 1.0000000000000000e-03 3.1410260496773997e+04 2.2150000000000000e-01 1.1350000000000000e-01 0.0000000000000000e+00
123 3 1.0000000000000000e-03 3.1410260496773997e+04 2.2250000000000000e-01 1.1350000000000000e-01 0.0000000000000000e+00
124 3 1.0000000000000000e-03 3.1410260496773997e+04 2.2350000000000000e-01 1.1350000000000000e-01 0.0000000000000000e+00
125 3 1.0000000000000000e-03 3.1410260496773997e+04 2.2450000000000001e-01 1.1350000000000000e-01 0.0000000000000000e+00
126 3 1.0000000000000000e-03 3.1410260496773997e+04 2.2550000000000001e-01 1.1350000000000000e-01 0.0000000000000000e+00
127 3 1.0000000000000000e-03 3.1410260496773997e+04 2.2650000000000001e-01 1.1350000000000000e-01 0.0000000000000000e+00
128 3 1.0000000000000000e-03 3.1410260496773997e+04 2.2750000000000001e-01 1.1350000000000000e-01 0.0000000000000000e+00
129 3 1.0000000000000000e-03 3.1410260496773997e+04 2.2850000000000001e-01 1.1350000000000000e-01 0.0000000000000000e+00
130 3 1.0000000000000000e-03 3.1410260496773997e+04 2.2950000000000001e-01 1.1350000000000000e-01 0.0000000000000000e+00
131 3 1.0000000000000000e-03 3.1410260496773997e+04 2.3050000000000001e-01 1.1350000000000000e-01 0.0000000000000000e+00
132 3 1.0000000000000000e-03 3.1410260496773997e+04 2.3150000000000001e-01 1.1350000000000000e-01 0.0000000000000000e+00
133 3 1.0000000000000000e-03 3.1410260496773997e+04 2.3250000000000001e-01 1.1350000000000000e-01 0.0000000000000000e+00
134 3 1.0000000000000000e-03 3.1410260496773997e+04 2.3350000000000001e-01 1.1350000000000000e-01 0.0000000000000000e+00
135 3 1.0000000000000000e-03 3.1410260496773997e+04 2.3450000000000001e-01 1.1350000000000000e-01 0.0000000000000000e+00
136 3 1.0000000000000000e-03 3.1410260496773997e+04 2.3550000000000001e-01 1.1350000000000000e-01 0.0000000000000000e+00
137 3 1.0000000000000000e-03 3.1410260496773997e+04 2.3650000000000002e-01 1.1350000000000000e-01 0.0000000000000000e+00
138 3 1.0000000000000000e-03 3.1410260496773997e+04 2.3750000000000002e-01 1.1350000000000000e-01 0.0000000000000000e+00
139 3 1.0000000000000000e-03 3.1410260496773997e+04 2.3850000000000002e-01 1.1350000000000000e-01 0.0000000000000000e+00
140 3 1.0000000000000000e-03 3.1410260496773997e+04 2.3950000000000002e-01 1.1350000000000000e-01 0.0000000000000000e+00
141 3 1.0000000000000000e-03 3.1410260496773997e+04 2.4050000000000002e-01 1.1350000000000000e-01 0.0000000000000000e+00
142 3 1.0000000000000000e-03 3.1410260496773997e+04 2.4150000000000002e-01 1.1350000000000000e-01 0.0000000000000000e+00
143 3 1.0000000000000000e-03 3.1410260496773997e+04 2.4250000000000002e-01 1.1350000000000000e-01 0.0000000000000000e+00
144 3 1.0000000000000000e-03 3.1410260496773997e+04 2.4350000000000002e-01 1.1350000000000000e-01 0.0000000000000000e+00
145 3 1.0000000000000000e-03 3.1410260496773997e+04 2.4450000000000002e-01 1.1350000000000000e-01 0.0000000000000000e+00
146 3 1.0000000000000000e-03 3.1410260496773997e+04 2.4550000000000000e-01 1.1350000000000000e-01 0.0000000000000000e+00
147 3 1.0000000000000000e-03 3.1410260496773997e+04 2.4650000000000000e-01 1.1350000000000000e-01 0.0000000000000000e+00
148 3 1.0000000000000000e-03 3.1410260496773997e+04 2.4750000000000000e-01 1.1350000000000000e-01 0.0000000000000000e+00
149 3 1.0000000000000000e-03 3.1410260496773997e+04 2.4850000000000000e-01 1.1350000000000000e-01 0.0000000000000000e+00
150 3 1.0000000000000000e-03 3.1410260496773997e+04 2.4950000000000000e-01 1.1350000000000000e-01 0.0000000000000000e+00
151 3 1.0000000000000000e-03 3.1410260496773997e+04 2.5050000000000000e-01 1.1350000000000000e-01 0.0000000000000000e+00
152 3 1.0000000000000000e-03 3.1410260496773997e+04 2.5150000000000000e-01 1.1350000000000000e-01 0.0000000000000000e+00
153 3 1.0000000000000000e-03 3.1410260496773997e+04 2.5250000000000000e-01 1.1350000000000000e-01 0.0000000000000000e+00
154 3 1.0000000000000000e-03 3.1410260496773997e+04 2.5350000000000000e-01 1.1350000000000000e-01 0.0000000000000000e+00
155 3 1.0000000000000000e-03 3.1410260496773997e+04 2.5450000000000000e-01 1.1350000000000000e-01 0.0000000000000000e+00
156 3 1.0000000000000000e-03 3.1410260496773997e+04 2.5550000000000000e-01 1.1350000000000000e-01 0.0000000000000000e+00
157 3 1.0000000000000000e-03 3.1410260496773997e+04 2.5650000000000001e-01 1.1350000000000000e-01 0.0000000000000000e+00
158 3 1.0000000000000000e-03 3.1410260496773997e+04 2.5750000000000001e-01 1.1350000000000000e-01 0.0000000000000000e+00
159 3 1.0000000000000000e-03 3.1410260496773997e+04 2.5850000000000001e-01 1.1350000000000000e-01 0.0000000000000000e+00
160 3 1.0000000000000000e-03 3.1410260496773997e+04 2.5950000000000001e-01 1.1350000000000000e-01 0.0000000000000000e+00
161 3 1.0000000000000000e-03 3.1410260496773997e+04 2.6050000000000001e-01 1.1350000000000000e-01 0.0000000000000000e+00
162 3 1.0000000000000000e-03 3.1410260496773997e+04 2.6150000000000001e-01 1.1350000000000000e-01 0.0000000000000000e+00
163 3 1.0000000000000000e-03 3.1410260496773997e+04 2.6250000000000001e-01 1.1350000000000000e-01 0.0000000000000000e+00
164 3 1.0000000000000000e-03 3.1410260496773997e+04 2.6350000000000001e-01 1.1350000000000000e-01 0.0000000000000000e+00
165 3 1.0000000000000000e-03 3.1410260496773997e+04 2.6450000000000001e-01 1.1350000000000000e-01 0.0000000000000000e+00
166 3 1.0000000000000000e-03 3.1410260496773997e+04 2.6550000000000001e-01 1.1350000000000000e-01 0.0000000000000000e+00
167 3 1.0000000000000000e-03 3.1410260496773997e+04 2.6650000000000001e-01 1.1350000000000000e-01 0.0000000000000000e+00
168 3 1.0000000000000000e-03 3.1410260496773997e+04 2.6750000000000002e-01 1.1350000000000000e-01 0.0000000000000000e+00
169 3 1.0000000000000000e-03 3.1410260496773997e+04 2.6850000000000002e-01 1.1350000000000000e-01 0.0000000000000000e+00
170 3 1.0000000000000000e-03 3.1410260496773997e+04 2.6950000000000002e-01 1.1350000000000000e-01 0.0000000000000000e+00
171 3 1.0000000000000000e-03 3.1410260496773997e+04 2.7050000000000002e-01 1.1350000000000000e-01 0.0000000000000000e+00
172 3 1.0000000000000000e-03 3.1410260496773997e+04 2.7150000000000002e-01 1.1350000000000000e-01 0.0000000000000000e+00
173 3 1.0000000000000000e-03 3.1410260496773997e+04 2.7250000000000002e-01 1.1350000000000000e-01 0.0000000000000000e+00
174 3 1.0000000000000000e-03 3.1410260496773997e+04 2.7350000000000002e-01 1.1350000000000000e-01 0.0000000000000000e+00
175 3 1.0000000000000000e-03 3.1410260496773997e+04 2.7450000000000002e-01 1.1350000000000000e-01 0.0000000000000000e+00
176 3 1.0000000000000000e-03 3.1410260496773997e+04 2.7550000000000002e-01 1.1350000000000000e-01 0.0000000000000000e+00
177 3 1.0000000000000000e-03 3.1410260496773997e+04 2.7650000000000002e-01 1.1350000000000000e-01 0.0000000000000000e+00
178 3 1.0000000000000000e-03 3.1410260496773997e+04 2.7750000000000002e-01 1.1350000000000000e-01 0.0000000000000000e+00
179 3 1.0000000000000000e-03 3.1410260496773997e+04 2.7850000000000003e-01 1.1350000000000000e-01 0.0000000000000000e+00
180 3 1.0000000000000000e-03 3.1410260496773997e+04 2.7950000000000003e-01 1.1350000000000000e-01 0.0000000000000000e+00
181 3 1.0000000000000000e-03 3.1410260496773997e+04 2.8050000000000003e-01 1.1350000000000000e-01 0.0000000000000000e+00
182 3 1.0000000000000000e-03 3.1410260496773997e+04 2.8150000000000003e-01 1.1350000000000000e-01 0.0000000000000000e+00
183 3 1.0000000000000000e-03 3.1410260496773997e+04 2.8250000000000003e-01 1.1350000000000000e-01 0.0000000000000000e+00
184 3 1.0000000000000000e-03 3.1410260496773997e+04 2.8350000000000003e-01 1.1350000000000000e-01 0.0000000000000000e+00
185 3 1.0000000000000000e-03 3.1410260496773997e+04 2.8450000000000003e-01 1.1350000000000000e-01 0.0000000000000000e+00
186 3 1.0000000000000000e-03 3.1410260496773997e+04 2.8550000000000003e-01 1.1350000000000000e-01 0.0000000000000000e+00
187 3 1.0000000000000000e-03 3.1410260496773997e+04 2.8650000000000003e-01 1.1350000000000000e-01 0.0000000000000000e+00
188 3 1.0000000000000000e-03 3.1410260496773997e+04 2.8750000000000003e-01 1.1350000000000000e-01 0.0000000000000000e+00
189 3 1.0000000000000000e-03 3.1410260496773997e+04 2.8850000000000003e-01 1.1350000000000000e-01 0.0000000000000000e+00
190 3 1.0000000000000000e-03 3.1410260496773997e+04 2.8950000000000004e-01 1.1350000000000000e-01 0.0000000000000000e+00
191 3 1.0000000000000000e-03 3.1410260496773997e+04 2.9050000000000004e-01 1.1350000000000000e-01 0.0000000000000000e+00
192 3 1.0000000000000000e-03 3.1410260496773997e+04 2.9150000000000004e-01 1.1350000000000000e-01 0.0000000000000000e+00
193 3 1.0000000000000000e-03 3.1410260496773997e+04 2.9250000000000004e-01 1.1350000000000000e-01 0.0000000000000000e+00
194 3 1.0000000000000000e-03 3.1410260496773997e+04 2.9350000000000004e-01 1.1350000000000000e-01 0.0000000000000000e+00
195 3 1.0000000000000000e-03 3.1410260496773997e+04 2.9450000000000004e-01 1.1350000000000000e-01 0.0000000000000000e+00
196 3 1.0000000000000000e-03 3.1410260496773997e+04 2.9550000000000004e-01 1.1350000000000000e-01 0.0000000000000000e+00
197 3 1.0000000000000000e-03 3.1410260496773997e+04 2.9650000000000004e-01 1.1350000000000000e-01 0.0000000000000000e+00
198 3 1.0000000000000000e-03 3.1410260496773997e+04 2.9750000000000004e-01 1.1350000000000000e-01 0.0000000000000000e+00
199 3 1.0000000000000000e-03 3.1410260496773997e+04 2.9850000000000004e-01 1.1350000000000000e-01 0.0000000000000000e+00
200 3 1.0000000000000000e-03 3.1410260496773997e+04 2.9950000000000004e-01 1.1350000000000000e-01 0.0000000000000000e+00
201 3 1.0000000000000000e-03 3.1410260496773997e+04 3.0050000000000004e-01 1.1350000000000000e-01 0.0000000000000000e+00
202 3 1.0000000000000000e-03 3.1410260496773997e+04 3.0150000000000005e-01 1.1350000000000000e-01 0.0000000000000000e+00
203 3 1.0000000000000000e-03 3.1410260496773997e+04 3.0250000000000005e-01 1.1350000000000000e-01 0.0000000000000000e+00
204 3 1.0000000000000000e-03 3.1410260496773997e+04 3.0350000000000005e-01 1.1350000000000000e-01 0.0000000000000000e+00
205 3 1.0000000000000000e-03 3.1410260496773997e+04 3.0450000000000005e-01 1.1350000000000000e-01 0.0000000000000000e+00
206 3 1.0000000000000000e-03 3.1410260496773997e+04 3.0550000000000005e-01 1.1350000000000000e-01 0.0000000000000000e+00
207 3 1.0000000000000000e-03 3.1410260496773997e+04 3.0650000000000005e-01 1.1350000000000000e-01 0.0000000000000000e+00
208 3 1.0000000000000000e-03 3.1410260496773997e+04 3.0750000000000005e-01 1.1350000000000000e-01 0.0000000000000000e+00
209 3 1.0000000000000000e-03 3.1410260496773997e+04 3.0850000000000005e-01 1.1350000000000000e-01 0.0000000000000000e+00
210 3 1.0000000000000000e-03 3.1410260496773997e+04 3.0950000000000000e-01 1.1350000000000000e-01 0.0000000000000000e+00
211 3 1.0000000000000000e-03 3.1410260496773997e+04 3.1050000000000000e-01 1.1350000000000000e-01 0.0000000000000000e+00
212 3 1.0000000000000000e-03 3.1410260496773997e+04 3.1150000000000000e-01 1.1350000000000000e-01 0.0000000000000000e+00
213 3 1.0000000000000000e-03 3.1410260496773997e+04 1.0050000000000001e-01 1.1450000000000000e-01 0.0000000000000000e+00
214 3 1.0000000000000000e-03 3.1410260496773997e+04 1.0150000000000001e-01 1.1450000000000000e-01 0.0000000000000000e+00
215 3 1.0000000000000000e-03 3.1410260496773997e+04 1.0250000000000001e-01 1.1450000000000000e-01 0.0000000000000000e+00
216 3 1.0000000000000000e-03 3.1410260496773997e+04 1.0350000000000001e-01 1.1450000000000000e-01 0.0000000000000000e+00
217 3 1.0000000000000000e-03 3.1410260496773997e+04 1.0450000000000001e-01 1.1450000000000000e-01 0.0000000000000000e+00
218 3 1.0000000000000000e-03 3.1410260496773997e+04 1.0550000000000001e-01 1.1450000000000000e-01 0.0000000000000000e+00
219 3 1.0000000000000000e-03 3.1410260496773997e+04 1.0650000000000001e-01 1.1450000000000000e-01 0.0000000000000000e+00
220 3 1.0000000000000000e-03 3.1410260496773997e+04 1.0750000000000001e-01 1.1450000000000000e-01 0.0000000000000000e+00
221 3 1.0000000000000000e-03 3.1410260496773997e+04 1.0850000000000001e-01 1.1450000000000000e-01 0.0000000000000000e+00
222 3 1.0000000000000000e-03 3.1410260496773997e+04 1.0950000000000001e-01 1.1450000000000000e-01 0.0000000000000000e+00
223 3 1.0000000000000000e-03 3.1410260496773997e+04 1.1050000000000000e-01 1.1450000000000000e-01 0.0000000000000000e+00
224 3 1.0000000000000000e-03 3.1410260496773997e+04 1.1150000000000000e-01 1.1450000000000000e-01 0.0000000000000000e+00
225 3 1.0000000000000000e-03 3.1410260496773997e+04 1.1250000000000000e-01 1.1450000000000000e-01 0.0000000000000000e+00
226 3 1.0000000000000000e-03 3.1410260496773997e+04 1.1350000000000000e-01 1.1450000000000000e-01 0.0000000000000000e+00
227 3 1.0000000000000000e-03 3.1410260496773997e+04 1.1450000000000000e-01 1.1450000000000000e-01 0.0000000000000000e+00
228 3 1.0000000000000000e-03 3.1410260496773997e+04 1.1550000000000001e-01 1.1450000000000000e-01 0.0000000000000000e+00
229 3 1.0000000000000000e-03 3.1410260496773997e+04 1.1650000000000001e-01 1.1450000000000000e-01 0.0000000000000000e+00
230 3 1.0000000000000000e-03 3.1410260496773997e+04 1.1750000000000001e-01 1.1450000000000000e-01 0.0000000000000000e+00
231 3 1.0000000000000000e-03 3.1410260496773997e+04 1.1850000000000001e-01 1.1450000000000000e-01 0.0000000000000000e+00
232 3 1.0000000000000000e-03 3.1410260496773997e+04 1.1950000000000001e-01 1.1450000000000000e-01 0.0000000000000000e+00
233 3 1.0000000000000000e-03 3.1410260496773997e+04 1.2050000000000001e-01 1.1450000000000000e-01 0.0000000000000000e+00
234 3 1.0000000000000000e-03 3.1410260496773997e+04 1.2150000000000001e-01 1.1450000000000000e-01 0.0000000000000000e+00
235 3 1.0000000000000000e-03 3.1410260496773997e+04 1.2250000000000000e-01 1.1450000000000000e-01 0.0000000000000000e+00
236 3 1.0000000000000000e-03 3.1410260496773997e+04 1.2350000000000000e-01 1.1450000000000000e-01 0.0000000000000000e+00
237 3 1.0000000000000000e-03 3.1410260496773997e+04 1.2450000000000000e-01 1.1450000000000000e-01 0.0000000000000000e+00
238 3 1.0000000000000000e-03 3.1410260496773997e+04 1.2550000000000000e-01 1.1450000000000000e-01 0.0000000000000000e+00
239 3 1.0000000000000000e-03 3.1410260496773997e+04 1.2650000000000000e-01 1.1450000000000000e-01 0.0000000000000000e+00
240 3 1.0000000000000000e-03 3.1410260496773997e+04 1.2750000000000000e-01 1.1450000000000000e-01 0.0000000000000000e+00
241 3 1.0000000000000000e-03 3.1410260496773997e+04 1.2850000000000000e-01 1.1450000000000000e-01 0.0000000000000000e+00
242 3 1.0000000000000000e-03 3.1410260496773997e+04 1.2950000000000000e-01 1.1450000000000000e-01 0.0000000000000000e+00
243 3 1.0000000000000000e-03 3.1410260496773997e+04 1.3050000000000000e-01 1.1450000000000000e-01 0.0000000000000000e+00
244 3 1.0000000000000000e-03 3.1410260496773997e+04 1.3150000000000001e-01 1.1450000000000000e-01 0.0000000000000000e+00
245 3 1.0000000000000000e-03 3.1410260496773997e+04 1.3250000000000001e-01 1.1450000000000000e-01 0.0000000000000000e+00
246 3 1.0000000000000000e-03 3.1410260496773997e+04 1.3350000000000001e-01 1.1450000000000000e-01 0.0000000000000000e+00